Pure Water
 2700
    1H2O     OW    1   0.690   2.629   2.315 -0.1201  0.0692  0.6616
    1H2O    HW1    2   0.618   2.690   2.333 -0.8548 -0.2600 -1.1515
    1H2O    HW2    3   0.705   2.585   2.399 -1.4217  0.7962  1.2847
    2H2O     OW    4   1.025   1.592   1.346 -0.0235  0.7604 -0.4923
    2H2O    HW1    5   1.114   1.586   1.380 -0.7946 -0.2181  1.3648
    2H2O    HW2    6   1.029   1.549   1.261  1.2092  0.4143 -0.2567
    3H2O     OW    7   2.561   1.801   1.365  0.7521 -0.2799  0.4688
    3H2O    HW1    8   2.645   1.774   1.329  0.0769 -0.6713 -0.7877
    3H2O    HW2    9   2.570   1.895   1.381  0.1992  0.3334 -2.9348
    4H2O     OW   10   1.020   2.577   0.022  0.1381  0.1380  0.1963
    4H2O    HW1   11   1.026   2.564   0.117  1.4553  0.1369  0.1019
    4H2O    HW2   12   1.109   2.564  -0.010 -0.0074  1.7397 -0.8482
    5H2O     OW   13   0.506   2.002   0.604  0.2265 -0.2423 -0.1537
    5H2O    HW1   14   0.491   1.945   0.679 -2.1318  1.1947  0.4455
    5H2O    HW2   15   0.516   2.090   0.641  1.0959  0.1691 -1.3332
    6H2O     OW   16   0.519   1.955   1.595  0.5393  0.0466 -0.1711
    6H2O    HW1   17   0.542   2.029   1.651 -1.8022 -0.2379  1.1428
    6H2O    HW2   18   0.601   1.905   1.588  1.7954  2.0756 -0.0501
    7H2O     OW   19   2.460   2.344   0.931 -0.2204 -0.3259  0.2300
    7H2O    HW1   20   2.460   2.430   0.889 -1.0403 -0.3441  0.2081
    7H2O    HW2   21   2.407   2.355   1.010 -0.1713 -0.7647  0.3245
    8H2O     OW   22   0.020   1.491   2.398 -0.0592  0.1928 -0.5640
    8H2O    HW1   23   0.107   1.475   2.435 -0.2789 -2.1222 -1.0251
    8H2O    HW2   24  -0.020   1.556   2.456  1.3230 -0.0445  0.6497
    9H2O     OW   25   2.245   0.649   0.912 -0.3323  0.5457  0.3273
    9H2O    HW1   26   2.175   0.624   0.973 -0.5820  1.9223  0.6112
    9H2O    HW2   27   2.305   0.701   0.964 -0.7121  1.9998 -0.6777
   10H2O     OW   28   2.922   2.535   1.252  0.3288 -0.2557  0.3334
   10H2O    HW1   29   2.941   2.534   1.158  3.0421  1.0547  0.8828
   10H2O    HW2   30   2.864   2.610   1.264  0.3063 -0.1830 -0.2272
   11H2O     OW   31   2.751   1.799   0.502  0.1620  0.0761  0.1789
   11H2O    HW1   32   2.842   1.824   0.484 -0.6350  1.1942 -2.3128
   11H2O    HW2   33   2.723   1.859   0.571  0.8938  0.5998  0.0314
   12H2O     OW   34   0.103   1.109   2.417 -0.4609  0.7613  0.0145
   12H2O    HW1   35   0.074   1.095   2.507 -2.0480  1.7279 -0.3416
   12H2O    HW2   36   0.033   1.160   2.377 -0.0123 -0.1311 -1.9191
   13H2O     OW   37   0.630   1.931   2.466  0.3149 -0.3471  0.1443
   13H2O    HW1   38   0.694   1.860   2.473  0.7111  0.0464  0.4997
   13H2O    HW2   39   0.548   1.887   2.444  0.3305 -1.0249  1.4016
   14H2O     OW   40   2.151   2.179   0.142  0.2286 -0.3785  0.5156
   14H2O    HW1   41   2.191   2.251   0.190  1.1035 -1.6808  1.7518
   14H2O    HW2   42   2.207   2.166   0.066  0.6272 -0.4042  0.8133
   15H2O     OW   43   2.773   2.041   1.772  0.3186  0.0608  0.5713
   15H2O    HW1   44   2.815   1.955   1.773 -0.7776 -0.4579  1.6662
   15H2O    HW2   45   2.745   2.055   1.862 -2.8739 -0.0870 -0.4247
   16H2O     OW   46   1.303   1.716   1.117 -0.0035  0.1403  0.2327
   16H2O    HW1   47   1.289   1.681   1.028  1.0306 -0.8994  0.4838
   16H2O    HW2   48   1.397   1.706   1.132  0.0144  1.5089  0.9478
   17H2O     OW   49   0.980   0.904   2.272 -0.0180  0.3756  0.4461
   17H2O    HW1   50   0.932   0.923   2.353  1.4512 -1.9328  1.8645
   17H2O    HW2   51   1.052   0.847   2.300 -0.6526 -2.0291 -2.7913
   18H2O     OW   52   2.280   1.769   2.952 -0.0609  0.1509  0.1050
   18H2O    HW1   53   2.231   1.759   3.034  0.7238 -0.4615  0.4875
   18H2O    HW2   54   2.337   1.693   2.948 -0.0068  0.2478 -0.9534
   19H2O     OW   55   2.745   1.459   2.460 -0.5654 -0.1954  0.0078
   19H2O    HW1   56   2.768   1.437   2.550  0.6351 -1.3984 -0.6005
   19H2O    HW2   57   2.827   1.452   2.412 -0.8675  2.2186 -0.8360
   20H2O     OW   58   2.233   1.185   0.812 -0.1133  0.3659 -0.2343
   20H2O    HW1   59   2.266   1.268   0.777 -0.0775  0.4296 -0.0532
   20H2O    HW2   60   2.299   1.121   0.789  0.5308  0.6402  0.8295
   21H2O     OW   61   0.567   2.925   2.654 -0.5424  0.2993  0.0176
   21H2O    HW1   62   0.623   3.002   2.660 -0.1415 -0.0268  0.3991
   21H2O    HW2   63   0.486   2.957   2.614 -0.6135  1.0400  0.7830
   22H2O     OW   64   1.824   0.827   2.085  0.4283 -0.0332  0.1582
   22H2O    HW1   65   1.768   0.872   2.021 -0.8296 -0.1469  1.1916
   22H2O    HW2   66   1.884   0.895   2.116  0.3966  0.2530 -0.4021
   23H2O     OW   67   1.912   0.662   2.453 -0.6981 -0.0964 -0.1839
   23H2O    HW1   68   1.972   0.736   2.454  0.1403 -0.7605 -2.1526
   23H2O    HW2   69   1.953   0.597   2.511 -0.1961 -0.0146 -0.4536
   24H2O     OW   70   1.693   2.180   2.526  0.1301 -0.1517 -0.1082
   24H2O    HW1   71   1.605   2.215   2.543 -0.2829 -1.1455 -0.1979
   24H2O    HW2   72   1.738   2.188   2.610 -0.0508  0.3651 -0.0633
   25H2O     OW   73   2.216   2.272   1.393  0.1766  1.0403  0.7223
   25H2O    HW1   74   2.239   2.304   1.481  0.0125 -2.4923  2.0386
   25H2O    HW2   75   2.123   2.295   1.384  0.0305  0.8823  1.7290
   26H2O     OW   76   1.475   2.097   0.565  0.1293 -0.0811  0.9826
   26H2O    HW1   77   1.473   2.001   0.566 -0.0844 -0.0835  0.0133
   26H2O    HW2   78   1.400   2.123   0.619 -0.7896 -0.4409 -0.1336
   27H2O     OW   79   2.182   2.290   2.054 -0.3420 -0.2773 -0.1215
   27H2O    HW1   80   2.173   2.373   2.102 -1.0399 -0.3888 -0.0590
   27H2O    HW2   81   2.195   2.224   2.122  0.6053 -0.1634 -0.1935
   28H2O     OW   82   2.354   0.996   1.862  0.0717  0.5418 -0.1965
   28H2O    HW1   83   2.408   0.919   1.879 -0.2269  0.6569  1.2632
   28H2O    HW2   84   2.353   1.004   1.767  0.9848 -0.6304 -0.3041
   29H2O     OW   85   0.342   2.987   0.339  0.2581  0.2343  0.2034
   29H2O    HW1   86   0.416   3.014   0.284 -0.5409  1.6005 -0.2111
   29H2O    HW2   87   0.343   2.892   0.336  0.4873  0.3011 -1.8157
   30H2O     OW   88   1.049   0.962   1.833  0.4011  0.4371  0.1154
   30H2O    HW1   89   1.105   0.892   1.869 -1.0158 -2.0100 -2.4262
   30H2O    HW2   90   0.981   0.915   1.784 -2.3293  3.5276  1.0074
   31H2O     OW   91   0.952   2.413   1.328 -0.1240 -0.1866 -0.7646
   31H2O    HW1   92   0.982   2.378   1.244 -1.7396  0.3063 -1.5419
   31H2O    HW2   93   0.906   2.340   1.370 -0.1105 -0.1533 -0.6902
   32H2O     OW   94   1.145   0.573   2.124 -0.2935  0.2300 -0.0009
   32H2O    HW1   95   1.169   0.652   2.172 -2.3841  0.2681  0.9975
   32H2O    HW2   96   1.089   0.525   2.185 -1.9746 -0.2828 -1.9511
   33H2O     OW   97   1.455   0.959   1.388  0.5371 -0.0620  0.0698
   33H2O    HW1   98   1.373   0.993   1.425  0.9688  1.8090 -0.6891
   33H2O    HW2   99   1.427   0.909   1.311  0.0333  0.0097  0.2031
   34H2O     OW  100   1.894   2.417   0.010 -0.0859 -0.1653  0.3955
   34H2O    HW1  101   1.832   2.488  -0.008 -1.6361 -1.2182  1.5573
   34H2O    HW2  102   1.944   2.448   0.086  1.4854  1.1162 -1.1689
   35H2O     OW  103   0.214   1.947   0.343 -0.9514  0.4654  0.0285
   35H2O    HW1  104   0.306   1.959   0.366 -0.9761  1.9756 -0.5920
   35H2O    HW2  105   0.214   1.881   0.274 -0.3623  0.1504  0.3385
   36H2O     OW  106   2.642   2.837   1.763 -0.0573 -0.5296 -0.7009
   36H2O    HW1  107   2.555   2.843   1.804 -0.0190 -0.4090 -0.6378
   36H2O    HW2  108   2.624   2.812   1.672 -0.1180 -1.2105 -0.4967
   37H2O     OW  109   0.993   2.778   2.476  0.1968  0.5409 -0.4798
   37H2O    HW1  110   0.960   2.846   2.418  1.7577  1.9970  0.3516
   37H2O    HW2  111   1.082   2.760   2.445  0.3682  0.0255  0.3115
   38H2O     OW  112   0.284   1.696   0.265  0.6152 -0.0515 -0.1601
   38H2O    HW1  113   0.311   1.615   0.222  0.3545  0.2569 -0.8989
   38H2O    HW2  114   0.319   1.688   0.354 -0.3771 -1.4809  0.1128
   39H2O     OW  115   2.537   1.333   1.129 -0.0494  0.4181 -0.1086
   39H2O    HW1  116   2.516   1.420   1.095 -2.4113  0.5772  1.7737
   39H2O    HW2  117   2.470   1.276   1.090 -0.7936  0.0650  1.7165
   40H2O     OW  118   0.954   2.058   1.883 -0.0729 -0.5114  0.0844
   40H2O    HW1  119   1.021   2.089   1.944 -0.7692 -1.5420  1.3588
   40H2O    HW2  120   0.900   2.135   1.867  1.7128  0.4400 -1.3151
   41H2O     OW  121   2.672   2.476   2.655  0.9081  0.3188  0.2430
   41H2O    HW1  122   2.724   2.515   2.584  0.4226 -0.2752 -0.4383
   41H2O    HW2  123   2.668   2.383   2.633  1.2877  0.0366  1.3898
   42H2O     OW  124   2.760   1.319   0.125 -0.4124 -0.1839  0.4968
   42H2O    HW1  125   2.676   1.275   0.135 -0.1630 -0.6081  0.7144
   42H2O    HW2  126   2.751   1.400   0.175 -0.4047 -0.6144  1.1881
   43H2O     OW  127   0.747   0.267   1.440  0.9737  0.1405 -0.8881
   43H2O    HW1  128   0.740   0.174   1.420 -0.0284  0.3573 -1.5087
   43H2O    HW2  129   0.835   0.277   1.477  0.1659 -1.4847  1.4879
   44H2O     OW  130   1.285   2.663   0.914  0.1907  0.0653 -0.2431
   44H2O    HW1  131   1.304   2.597   0.847  0.3991  0.9658 -1.0725
   44H2O    HW2  132   1.217   2.623   0.968 -0.3861 -0.4295 -1.3421
   45H2O     OW  133   2.092   2.165   0.488  0.8918 -0.0918 -0.0128
   45H2O    HW1  134   2.057   2.217   0.416 -0.9840 -0.1772  0.8310
   45H2O    HW2  135   2.138   2.229   0.543 -0.6463  0.5306  0.5499
   46H2O     OW  136   2.374   1.692   0.715  0.3239  0.2703 -0.4003
   46H2O    HW1  137   2.439   1.758   0.738  0.6067 -1.4141  3.5947
   46H2O    HW2  138   2.296   1.715   0.765 -0.7217 -0.3797 -1.7020
   47H2O     OW  139   1.098   0.206   1.723 -0.1719  0.4664 -0.3590
   47H2O    HW1  140   1.063   0.138   1.780  0.4892 -0.4143 -0.9937
   47H2O    HW2  141   1.039   0.207   1.647  1.6155 -1.5871 -1.8107
   48H2O     OW  142   2.630   0.675   2.710  0.2280 -0.6550  0.1519
   48H2O    HW1  143   2.673   0.732   2.646  0.6388 -1.2777 -0.1174
   48H2O    HW2  144   2.688   0.679   2.787  0.0624 -0.4127  0.2647
   49H2O     OW  145   3.012   1.372   0.773 -0.3154  0.7086  0.2680
   49H2O    HW1  146   2.989   1.404   0.861  1.9599 -0.0487  1.1192
   49H2O    HW2  147   2.953   1.298   0.759 -1.8425  1.8683  0.4841
   50H2O     OW  148   2.957   1.351   1.044 -0.4935  0.0576  0.4649
   50H2O    HW1  149   2.893   1.370   1.112  0.3058 -0.6466  1.4133
   50H2O    HW2  150   2.953   1.256   1.033 -0.3966  0.1332 -0.2594
   51H2O     OW  151   0.500   1.788   2.778  0.7766  0.4603  0.2689
   51H2O    HW1  152   0.587   1.804   2.741 -0.2008 -0.4083 -2.4760
   51H2O    HW2  153   0.515   1.773   2.871  3.5716  0.2397 -0.2171
   52H2O     OW  154   2.529   1.287   2.473 -0.0734  0.0422 -0.4480
   52H2O    HW1  155   2.561   1.219   2.414  1.4491 -0.7095  1.2053
   52H2O    HW2  156   2.605   1.344   2.487 -0.2902 -0.0415  1.1198
   53H2O     OW  157   2.144   2.151   2.312  0.1407  0.2111  0.3595
   53H2O    HW1  158   2.145   2.060   2.281  0.7142 -0.0241  1.0857
   53H2O    HW2  159   2.115   2.145   2.403  1.0852  0.6840  0.6845
   54H2O     OW  160   1.227   0.538   1.693  0.5669  0.2364 -0.1444
   54H2O    HW1  161   1.294   0.471   1.708 -0.4802 -0.9168 -0.5835
   54H2O    HW2  162   1.196   0.521   1.604  1.1829  2.0857 -0.7010
   55H2O     OW  163   0.562   0.602   2.174  0.0087 -0.1520 -0.3018
   55H2O    HW1  164   0.546   0.565   2.260 -3.0607  0.7799 -0.4601
   55H2O    HW2  165   0.503   0.554   2.116  1.1152  0.1286 -1.6643
   56H2O     OW  166   2.145   0.491   1.831 -0.0437 -0.3141 -0.1759
   56H2O    HW1  167   2.185   0.478   1.745 -1.5351  2.8546 -1.3731
   56H2O    HW2  168   2.051   0.491   1.813 -0.4761 -3.5719  2.0181
   57H2O     OW  169   0.890   1.986   1.339 -0.6203 -0.4451 -0.4654
   57H2O    HW1  170   0.913   1.951   1.425 -0.1584 -0.4877 -0.6086
   57H2O    HW2  171   0.919   1.918   1.277  0.4019  0.2549 -0.7532
   58H2O     OW  172   1.279   2.542   2.759  0.2229 -0.0783 -0.8348
   58H2O    HW1  173   1.229   2.610   2.803  0.2798 -1.6307  1.6024
   58H2O    HW2  174   1.327   2.498   2.829 -0.2478 -2.9889 -2.3644
   59H2O     OW  175   1.821   0.362   1.097 -0.1977  0.5460 -0.5219
   59H2O    HW1  176   1.826   0.404   1.183 -2.5201  0.5616 -0.3834
   59H2O    HW2  177   1.778   0.278   1.114  1.0089 -0.2466 -1.3883
   60H2O     OW  178   2.258   0.380   0.257 -0.2703  0.4663 -0.3249
   60H2O    HW1  179   2.328   0.324   0.225 -1.2938  0.2098 -2.1161
   60H2O    HW2  180   2.182   0.322   0.264 -0.8848  1.2462 -0.5323
   61H2O     OW  181   2.324   1.936   2.701  0.0881 -0.0823  0.5900
   61H2O    HW1  182   2.308   1.885   2.781  1.1544 -1.0164  0.2070
   61H2O    HW2  183   2.413   1.969   2.711  0.6904 -1.2810 -0.8040
   62H2O     OW  184   2.397   2.053   1.387  0.0744  0.0486 -0.3312
   62H2O    HW1  185   2.313   2.090   1.360  0.3443  1.0232  0.1650
   62H2O    HW2  186   2.459   2.125   1.375  1.1263 -1.2120 -2.3795
   63H2O     OW  187   0.842   1.064   0.133  0.3478  0.2971  0.4892
   63H2O    HW1  188   0.846   1.081   0.039 -1.2581 -0.9466  0.2039
   63H2O    HW2  189   0.896   0.986   0.145  0.3273  0.2944  0.5626
   64H2O     OW  190   0.744   1.548   0.666 -0.2963 -0.6087  0.0182
   64H2O    HW1  191   0.788   1.501   0.736  0.0510 -0.2686  0.0295
   64H2O    HW2  192   0.700   1.480   0.614 -1.7464 -0.7227  1.4083
   65H2O     OW  193   0.932   1.462   2.444 -0.5807 -0.5063 -0.2724
   65H2O    HW1  194   1.012   1.412   2.459 -1.2636 -0.9729  1.8032
   65H2O    HW2  195   0.893   1.423   2.366  1.3224 -0.1469 -1.3994
   66H2O     OW  196   0.895   2.751   2.737 -0.7435 -0.2296  0.1755
   66H2O    HW1  197   0.932   2.785   2.656  1.3555 -0.7798  0.9157
   66H2O    HW2  198   0.825   2.692   2.709  2.2783 -3.0836 -1.2883
   67H2O     OW  199   2.524   2.841   1.492  0.2119  0.4818  0.2391
   67H2O    HW1  200   2.450   2.830   1.433 -0.2132  0.7175  0.7280
   67H2O    HW2  201   2.530   2.935   1.506  1.7304  0.6123 -1.2373
   68H2O     OW  202   1.183   0.799   2.820 -0.2783  0.6392  0.1579
   68H2O    HW1  203   1.207   0.759   2.903 -0.7255  0.1382  0.0488
   68H2O    HW2  204   1.206   0.891   2.830  0.2558  0.4580  0.6066
   69H2O     OW  205   0.264   2.732   2.022  0.6815  0.0065 -0.9679
   69H2O    HW1  206   0.322   2.788   2.072  2.4512 -0.5734 -2.3641
   69H2O    HW2  207   0.317   2.657   1.997 -0.7770 -0.7562 -1.8416
   70H2O     OW  208   2.698   2.248   1.635 -0.1758  0.1664 -0.2155
   70H2O    HW1  209   2.743   2.175   1.677  1.0108  0.6299 -0.6754
   70H2O    HW2  210   2.641   2.284   1.703  0.9515  0.2586  0.6808
   71H2O     OW  211   1.688   1.047   0.723 -0.2012  0.2938  0.6330
   71H2O    HW1  212   1.675   1.018   0.813  2.0511  1.1470  1.2321
   71H2O    HW2  213   1.775   1.085   0.722 -0.7168  1.4462 -1.6205
   72H2O     OW  214   2.397   1.897   1.088 -0.0748  0.4017 -0.2955
   72H2O    HW1  215   2.425   1.969   1.145 -0.3894  0.3062 -0.0246
   72H2O    HW2  216   2.356   1.834   1.147 -0.0827  0.1453 -0.5790
   73H2O     OW  217   2.629   2.839   0.938  0.0996  0.7565  0.2292
   73H2O    HW1  218   2.708   2.815   0.889 -0.1279  0.6004 -0.0602
   73H2O    HW2  219   2.650   2.818   1.029 -0.0885 -0.5161 -0.0238
   74H2O     OW  220   1.565   1.709   2.191  0.6705  0.6411  0.1354
   74H2O    HW1  221   1.625   1.770   2.148  0.2984  0.7327 -0.2494
   74H2O    HW2  222   1.606   1.623   2.178  1.7646  0.9262  1.6493
   75H2O     OW  223   2.131   2.038   0.829 -0.2981  0.4206  0.5423
   75H2O    HW1  224   2.154   1.945   0.829 -0.0522  0.4824  0.8221
   75H2O    HW2  225   2.201   2.080   0.780 -0.6141  0.4059  0.0821
   76H2O     OW  226   0.914   0.578   2.502 -0.1299  0.1881  0.2106
   76H2O    HW1  227   0.933   0.656   2.555  0.3085 -0.7716  1.4487
   76H2O    HW2  228   1.000   0.545   2.477 -0.2966 -0.7850  0.9455
   77H2O     OW  229   2.078   1.070   0.165  0.2738 -0.2007  0.0063
   77H2O    HW1  230   2.090   1.085   0.071  0.8059 -0.9734 -0.0545
   77H2O    HW2  231   2.100   0.977   0.177  0.5915 -0.0038  0.9566
   78H2O     OW  232   0.626   1.211   1.474 -0.1820 -0.0207 -0.0633
   78H2O    HW1  233   0.631   1.292   1.424  0.8176 -0.7145 -1.0827
   78H2O    HW2  234   0.535   1.184   1.466  0.0275 -0.2492 -1.6951
   79H2O     OW  235   0.680   1.639   2.070  0.1978 -0.3230  0.0847
   79H2O    HW1  236   0.716   1.708   2.014  0.9330 -1.0306 -0.3138
   79H2O    HW2  237   0.598   1.615   2.027 -0.0930  0.3530  0.2610
   80H2O     OW  238   0.053   0.332   2.763 -0.6368  0.6682 -0.0318
   80H2O    HW1  239   0.148   0.347   2.757 -0.2499 -1.0739  1.3330
   80H2O    HW2  240   0.044   0.237   2.751 -2.0308  0.5808  1.7646
   81H2O     OW  241   0.554   1.274   2.401 -0.0192  0.0534 -0.2433
   81H2O    HW1  242   0.596   1.287   2.316 -1.2048 -0.5591 -0.9257
   81H2O    HW2  243   0.568   1.182   2.420 -2.2588 -0.4490 -1.1049
   82H2O     OW  244   1.386   2.021   1.046  0.1453  0.9392 -0.1031
   82H2O    HW1  245   1.304   2.058   1.015 -0.0925  1.3297  0.9971
   82H2O    HW2  246   1.442   2.098   1.060  0.3200  0.7425  0.2542
   83H2O     OW  247   2.735   0.932   1.600 -0.1519  0.1140  0.1660
   83H2O    HW1  248   2.798   0.872   1.640 -0.1980  0.4593  0.7479
   83H2O    HW2  249   2.787   0.982   1.537  0.4310  1.3811  1.6612
   84H2O     OW  250   0.154   2.480   1.359  0.2032  0.1913 -0.3166
   84H2O    HW1  251   0.146   2.443   1.447  1.0232 -0.2725 -0.4369
   84H2O    HW2  252   0.064   2.498   1.332 -0.0045  0.9274  0.8786
   85H2O     OW  253   2.463   2.322   2.750  0.3561  0.1777 -0.0745
   85H2O    HW1  254   2.380   2.369   2.756 -0.9939 -2.2562  0.2481
   85H2O    HW2  255   2.463   2.285   2.662  0.8650 -0.2785  0.1155
   86H2O     OW  256   0.071   2.365   0.142 -0.3483 -0.1699  0.7490
   86H2O    HW1  257   0.113   2.450   0.138 -1.2834  0.2438 -0.1431
   86H2O    HW2  258   0.135   2.308   0.185  1.5322  0.2045 -1.5845
   87H2O     OW  259   1.923   1.871   2.716 -0.7427  0.2085 -0.1316
   87H2O    HW1  260   1.831   1.863   2.743  0.1973 -2.7189  2.1446
   87H2O    HW2  261   1.970   1.893   2.796  1.0272 -1.4729 -0.7072
   88H2O     OW  262   0.453   0.802   1.759 -0.4510  0.2337  0.1943
   88H2O    HW1  263   0.513   0.807   1.685 -2.4956 -0.6469 -1.5124
   88H2O    HW2  264   0.508   0.819   1.836  2.3264 -2.3474 -1.2110
   89H2O     OW  265   1.865   0.436   1.823 -0.5861  0.8377  0.0984
   89H2O    HW1  266   1.854   0.381   1.745 -0.8398 -1.3647  1.6610
   89H2O    HW2  267   1.786   0.489   1.826 -0.7629  0.6246 -0.9376
   90H2O     OW  268   2.466   1.246   1.439 -0.1973  0.2918 -0.0274
   90H2O    HW1  269   2.469   1.232   1.344  0.2753  1.3491 -0.1761
   90H2O    HW2  270   2.477   1.341   1.449  1.3399 -0.0056  1.1561
   91H2O     OW  271   1.751   1.932   0.602  0.2539  0.1841 -0.0198
   91H2O    HW1  272   1.781   1.937   0.511  1.9191 -2.5842  0.4207
   91H2O    HW2  273   1.792   2.007   0.645  0.5450  0.7010 -1.1955
   92H2O     OW  274   2.081   1.137   1.040 -0.7036 -0.2642  0.5649
   92H2O    HW1  275   2.147   1.148   0.972  0.9965  1.0482  2.4398
   92H2O    HW2  276   2.029   1.062   1.010  0.6788 -0.3463 -1.6621
   93H2O     OW  277   1.865   0.316   2.094  0.1820  0.5130  0.0060
   93H2O    HW1  278   1.905   0.344   2.011 -3.4434  0.6429 -1.7085
   93H2O    HW2  279   1.822   0.395   2.128 -1.1351 -0.3517  0.3674
   94H2O     OW  280   2.821   2.529   2.441  0.1886  0.2529 -0.1438
   94H2O    HW1  281   2.856   2.458   2.388 -1.5861 -1.7647  1.3806
   94H2O    HW2  282   2.812   2.602   2.380  2.7310 -0.6080 -1.5318
   95H2O     OW  283   0.999   2.510   0.642  0.3816  0.3743  0.3095
   95H2O    HW1  284   0.940   2.507   0.567  0.5475  1.2581  0.1443
   95H2O    HW2  285   1.084   2.482   0.607 -0.0988 -1.5560  0.6971
   96H2O     OW  286   2.944   3.028   0.629 -0.3108 -0.7486 -0.0744
   96H2O    HW1  287   2.873   2.964   0.614 -0.8837 -0.2484  0.4900
   96H2O    HW2  288   3.024   2.975   0.629 -0.7817 -1.4670  0.3607
   97H2O     OW  289   0.937   1.737   0.720 -0.5710  0.2004 -0.3947
   97H2O    HW1  290   0.884   1.776   0.789  0.6985  0.5700  0.3610
   97H2O    HW2  291   0.881   1.668   0.683 -0.8859 -0.6058  1.5910
   98H2O     OW  292   2.804   0.091   2.603 -0.7243  0.0103  0.3850
   98H2O    HW1  293   2.740   0.035   2.559  0.2339  0.1349 -1.1580
   98H2O    HW2  294   2.751   0.159   2.645 -1.5446  0.6049 -1.6088
   99H2O     OW  295   1.242   0.064   0.526 -0.0314  0.1411 -0.0417
   99H2O    HW1  296   1.203  -0.021   0.547  0.1166  0.1872  0.4224
   99H2O    HW2  297   1.283   0.052   0.441  0.6607 -0.4694  0.3819
  100H2O     OW  298   2.373   1.425   1.747  0.2081  0.2434 -0.4801
  100H2O    HW1  299   2.408   1.451   1.661  0.2269  0.5891 -0.3664
  100H2O    HW2  300   2.281   1.405   1.730  0.4305 -0.5408 -0.7554
  101H2O     OW  301   0.971   2.203   1.130 -0.4369 -0.4011 -0.1543
  101H2O    HW1  302   0.948   2.143   1.200  1.6502  0.2510  1.0760
  101H2O    HW2  303   0.941   2.159   1.050 -1.7734 -1.6333  1.0289
  102H2O     OW  304   2.503   2.177   0.718  0.0687 -0.3339 -0.2358
  102H2O    HW1  305   2.576   2.115   0.729  0.7508  0.5118  0.0178
  102H2O    HW2  306   2.494   2.218   0.804  0.5402  0.9483 -0.8086
  103H2O     OW  307   2.114   2.339   2.575 -0.3164  0.2535 -0.4300
  103H2O    HW1  308   2.168   2.263   2.594 -1.9773 -0.7674  0.2860
  103H2O    HW2  309   2.025   2.310   2.597 -1.1737  1.7978 -1.9053
  104H2O     OW  310   1.980   0.692   0.567  0.3062 -0.0491  0.2031
  104H2O    HW1  311   1.912   0.720   0.628  0.5251  1.4677 -0.2434
  104H2O    HW2  312   2.034   0.631   0.618 -0.8797 -0.5702  0.8190
  105H2O     OW  313   2.452   0.271   2.604 -0.3497 -0.4217  0.2758
  105H2O    HW1  314   2.490   0.230   2.682 -0.5922 -2.6311 -0.7944
  105H2O    HW2  315   2.430   0.360   2.633  4.4806  0.4608  1.2449
  106H2O     OW  316   1.771   2.526   2.453  0.6066  0.0181 -0.4697
  106H2O    HW1  317   1.688   2.547   2.497  0.8265 -0.3998  0.1413
  106H2O    HW2  318   1.750   2.532   2.360 -0.5162 -1.6300 -0.3284
  107H2O     OW  319   0.532   2.252   2.288 -0.9318  0.2162 -0.2038
  107H2O    HW1  320   0.550   2.274   2.379  2.9133  1.8462 -1.3786
  107H2O    HW2  321   0.522   2.336   2.244 -1.4212 -0.5460 -1.5725
  108H2O     OW  322   2.883   2.494   2.821 -0.3880 -0.0305 -0.5273
  108H2O    HW1  323   2.800   2.497   2.773 -1.3079  1.6296  1.1508
  108H2O    HW2  324   2.873   2.421   2.882  0.0039 -0.8792 -1.5000
  109H2O     OW  325   0.162   2.012   2.470 -0.1729 -0.0020 -0.1074
  109H2O    HW1  326   0.125   2.098   2.448  1.2808  0.5688 -0.3610
  109H2O    HW2  327   0.205   2.026   2.554 -1.8763 -1.0501  0.9180
  110H2O     OW  328   2.326   1.376   2.210 -0.2811 -1.2238  0.0196
  110H2O    HW1  329   2.397   1.378   2.274 -0.8777 -2.2429  0.7206
  110H2O    HW2  330   2.366   1.342   2.130  0.6315  0.7342 -0.3618
  111H2O     OW  331   1.262   0.129   1.994 -0.4857  0.4257 -0.2014
  111H2O    HW1  332   1.317   0.206   1.989  0.5379 -0.4149 -1.9704
  111H2O    HW2  333   1.258   0.108   2.087  3.0063 -0.1082 -0.1719
  112H2O     OW  334   2.420   1.639   2.572 -0.1333  0.0580 -0.1072
  112H2O    HW1  335   2.376   1.570   2.523  0.2081 -0.2504  0.0189
  112H2O    HW2  336   2.405   1.719   2.520 -0.7586 -0.0623 -0.1063
  113H2O     OW  337   2.946   2.161   2.742 -1.0747  0.1593  0.3565
  113H2O    HW1  338   2.909   2.144   2.829  0.2497 -0.5613  0.7865
  113H2O    HW2  339   2.942   2.077   2.697 -1.0025  0.3458  0.0012
  114H2O     OW  340   1.690   0.025   1.653  0.5173  0.1101 -0.3033
  114H2O    HW1  341   1.605   0.051   1.689  0.8572  1.3533 -0.3955
  114H2O    HW2  342   1.753   0.056   1.718  1.1243  2.2238 -1.9034
  115H2O     OW  343   2.255   2.601   1.368  0.0785  1.0044 -0.4281
  115H2O    HW1  344   2.223   2.529   1.314 -1.9839  1.2537  0.4765
  115H2O    HW2  345   2.344   2.576   1.391 -1.5517 -2.4850  2.0766
  116H2O     OW  346   0.084   0.121   0.342 -0.0396  0.0892  0.5100
  116H2O    HW1  347   0.103   0.110   0.249 -0.9168  0.4015  0.2971
  116H2O    HW2  348   0.157   0.077   0.386  0.0433 -0.6196 -0.3254
  117H2O     OW  349   1.849   1.260   0.206 -0.1614  0.1057  0.0387
  117H2O    HW1  350   1.892   1.345   0.195  0.4584 -0.5140 -2.1956
  117H2O    HW2  351   1.921   1.200   0.225 -0.4278 -0.2415 -0.0665
  118H2O     OW  352   1.483   2.433   0.808 -0.4997  0.0093 -0.3282
  118H2O    HW1  353   1.571   2.398   0.823 -0.3270  1.4300  1.8998
  118H2O    HW2  354   1.437   2.420   0.891 -1.9425  0.6558 -1.0228
  119H2O     OW  355   0.780   2.081   2.752 -0.0510 -0.6500 -0.2181
  119H2O    HW1  356   0.844   2.102   2.684 -1.5700 -1.5005 -1.9237
  119H2O    HW2  357   0.821   2.108   2.834  1.7482  0.4554 -1.5002
  120H2O     OW  358   2.951   1.695   0.133 -0.6607  0.2914 -0.4685
  120H2O    HW1  359   2.909   1.706   0.048 -0.6354 -1.8214 -0.7437
  120H2O    HW2  360   3.042   1.673   0.112 -0.6460 -0.1990  0.1181
  121H2O     OW  361   1.886   1.155   2.587 -0.2444  0.5309  0.1351
  121H2O    HW1  362   1.818   1.141   2.652  0.0079 -0.1784  0.2524
  121H2O    HW2  363   1.939   1.226   2.622 -0.2578  0.3219  0.5825
  122H2O     OW  364   2.548   1.318   0.457  0.0929  0.0808  0.0278
  122H2O    HW1  365   2.549   1.242   0.515 -0.2519  0.6554  0.7841
  122H2O    HW2  366   2.617   1.375   0.491 -0.6550  0.7844  0.3715
  123H2O     OW  367   1.024   0.194   0.937 -0.0348  0.7007  0.1425
  123H2O    HW1  368   0.952   0.257   0.945  1.3703  2.1715  1.3824
  123H2O    HW2  369   1.078   0.230   0.866 -1.0099 -0.8994 -1.4230
  124H2O     OW  370   0.573   0.142   2.109  0.0266  0.0565 -0.0414
  124H2O    HW1  371   0.605   0.194   2.035  1.7542 -0.6818  0.1833
  124H2O    HW2  372   0.545   0.059   2.070 -0.3485  0.1895 -0.0546
  125H2O     OW  373   0.307   2.701   0.766 -0.5617  0.0941  0.2492
  125H2O    HW1  374   0.288   2.613   0.733 -0.5382  0.1579  0.0658
  125H2O    HW2  375   0.307   2.691   0.861  0.0612 -0.2321  0.2141
  126H2O     OW  376   2.523   0.701   0.527 -0.0351 -0.2006 -0.1059
  126H2O    HW1  377   2.544   0.613   0.558 -1.0166 -0.3467  0.1458
  126H2O    HW2  378   2.433   0.694   0.494  0.7615  0.1310 -2.3299
  127H2O     OW  379   1.140   0.402   2.717 -0.3917 -0.0902 -0.5280
  127H2O    HW1  380   1.201   0.332   2.742  1.3480  1.8048  0.5102
  127H2O    HW2  381   1.084   0.413   2.794 -0.9785 -0.6601 -0.8687
  128H2O     OW  382   1.008   0.386   1.327  0.6643  0.4196 -0.0596
  128H2O    HW1  383   1.009   0.399   1.422  2.4646  0.6588 -0.1018
  128H2O    HW2  384   0.931   0.433   1.297 -1.7356 -2.3406  1.6680
  129H2O     OW  385   0.157   2.887   1.651 -0.7431 -0.7551  0.3954
  129H2O    HW1  386   0.207   2.808   1.632 -0.8014  0.0590 -3.1905
  129H2O    HW2  387   0.066   2.858   1.651 -0.5514 -1.3628  2.5109
  130H2O     OW  388   1.157   0.469   2.457 -1.2994  0.1067  1.1260
  130H2O    HW1  389   1.157   0.442   2.549 -0.3755 -0.2355  1.0225
  130H2O    HW2  390   1.248   0.489   2.438 -0.9289 -3.2499 -0.7040
  131H2O     OW  391   1.196   1.440   0.188 -0.0261  0.2849 -0.0170
  131H2O    HW1  392   1.128   1.393   0.236  1.4784 -1.4219  0.4463
  131H2O    HW2  393   1.265   1.456   0.253  0.8458  0.3261 -0.9448
  132H2O     OW  394   0.180   2.793   2.654 -0.8140 -0.2890 -0.4008
  132H2O    HW1  395   0.225   2.815   2.736  0.3844 -1.3394 -0.7874
  132H2O    HW2  396   0.172   2.698   2.655 -0.7933 -0.3071 -1.5073
  133H2O     OW  397   1.156   1.083   0.466  0.1629  1.0593  0.3760
  133H2O    HW1  398   1.224   1.077   0.398 -1.8945  0.5604 -1.6358
  133H2O    HW2  399   1.132   1.175   0.468 -1.0661  0.7697 -0.8447
  134H2O     OW  400   1.699   1.939   2.040 -0.1110  0.5216  0.2003
  134H2O    HW1  401   1.742   2.012   1.997  0.8431  0.3543  0.8549
  134H2O    HW2  402   1.677   1.972   2.127  0.3645  0.0296  0.5153
  135H2O     OW  403   2.862   0.644   0.730  0.2188 -0.1552 -0.3047
  135H2O    HW1  404   2.921   0.674   0.662  0.8826 -1.6426 -0.3819
  135H2O    HW2  405   2.899   0.561   0.759  0.4241  0.9066  2.4778
  136H2O     OW  406   0.422   1.536   1.254  0.2507  0.0678 -0.0199
  136H2O    HW1  407   0.390   1.626   1.257  1.2913  0.4836 -1.0755
  136H2O    HW2  408   0.408   1.509   1.163 -1.8082 -1.4796  0.7558
  137H2O     OW  409   2.780   1.974   0.711 -0.1211  0.1693  0.0096
  137H2O    HW1  410   2.828   1.964   0.793 -0.8546  1.1284  0.5548
  137H2O    HW2  411   2.848   1.994   0.646  0.5641 -1.5647  0.2015
  138H2O     OW  412   1.443   0.040   1.807 -0.1424  0.8342 -0.3647
  138H2O    HW1  413   1.376   0.067   1.870  0.0999  1.9891 -0.5997
  138H2O    HW2  414   1.512  -0.000   1.860  0.1411  1.9708  0.1317
  139H2O     OW  415   0.137   0.519   1.082  0.1042 -0.4015 -0.2801
  139H2O    HW1  416   0.220   0.494   1.124 -0.3208  0.0412  0.8246
  139H2O    HW2  417   0.081   0.442   1.091  1.1330 -1.4552 -2.9317
  140H2O     OW  418   2.113   0.539   1.384  0.3861 -0.0797 -0.0770
  140H2O    HW1  419   2.127   0.606   1.451  0.7820  1.5007 -1.7550
  140H2O    HW2  420   2.184   0.475   1.399  1.5776  1.2218 -0.2050
  141H2O     OW  421   0.822   0.429   1.889  0.1279  0.2741 -0.3005
  141H2O    HW1  422   0.798   0.516   1.921  0.1503 -0.2969  1.2755
  141H2O    HW2  423   0.915   0.421   1.910  0.2515  0.0828 -0.9326
  142H2O     OW  424   1.819   0.575   2.196  0.4391 -0.1864 -0.0729
  142H2O    HW1  425   1.873   0.581   2.274  1.0097 -0.3295 -0.4550
  142H2O    HW2  426   1.821   0.663   2.158  0.8429 -0.3231 -0.3752
  143H2O     OW  427   0.498   0.594   0.582 -0.3637 -0.1756  0.7337
  143H2O    HW1  428   0.449   0.672   0.607 -0.4923 -0.4796  1.4333
  143H2O    HW2  429   0.448   0.556   0.510  0.0093  0.7073  0.0083
  144H2O     OW  430   1.628   2.269   0.396  0.2011 -0.2803 -0.2685
  144H2O    HW1  431   1.580   2.209   0.453 -0.1907 -0.0597 -0.3657
  144H2O    HW2  432   1.703   2.298   0.449 -0.0693 -0.2059  0.0735
  145H2O     OW  433   2.672   2.911   0.542  0.1840  0.2031  0.0465
  145H2O    HW1  434   2.707   2.829   0.508 -0.9301 -0.8028  1.3263
  145H2O    HW2  435   2.697   2.977   0.477  1.4910 -1.0726 -0.7346
  146H2O     OW  436   2.834   2.601   0.865  0.7258 -0.1075  0.1633
  146H2O    HW1  437   2.835   2.542   0.790 -1.5615 -1.1636  0.9535
  146H2O    HW2  438   2.918   2.586   0.909  0.2869 -2.5932  0.1974
  147H2O     OW  439   1.085   0.532   0.738 -0.2934 -0.5359  0.2202
  147H2O    HW1  440   1.085   0.628   0.742 -1.1347 -0.5302  0.2208
  147H2O    HW2  441   1.034   0.506   0.815 -1.2540 -0.9470 -0.5606
  148H2O     OW  442   1.769   2.516   1.315  0.6993 -0.9354  0.6419
  148H2O    HW1  443   1.731   2.548   1.397 -0.7968  2.0169 -1.2077
  148H2O    HW2  444   1.696   2.519   1.252  2.2874 -1.5452 -1.2270
  149H2O     OW  445   2.518   1.627   2.825 -0.3568 -0.4007 -0.3494
  149H2O    HW1  446   2.452   1.574   2.870 -0.2806  2.7681  3.4500
  149H2O    HW2  447   2.475   1.656   2.744 -2.7848 -0.3132  0.9927
  150H2O     OW  448   2.890   0.493   2.620 -0.1620  0.2519  0.3379
  150H2O    HW1  449   2.948   0.568   2.609  1.1352 -0.9844 -1.2645
  150H2O    HW2  450   2.947   0.423   2.652 -0.9374 -0.7326 -0.4371
  151H2O     OW  451   2.328   1.240   2.619 -0.1569  0.5766 -0.1983
  151H2O    HW1  452   2.403   1.247   2.561  2.3020 -1.8279  2.7262
  151H2O    HW2  453   2.254   1.271   2.566  2.5548  1.1915 -3.6283
  152H2O     OW  454   1.699   2.091   2.273 -0.6243 -0.4970 -0.0702
  152H2O    HW1  455   1.695   2.122   2.363 -0.4554 -0.1240 -0.1917
  152H2O    HW2  456   1.682   2.168   2.220  2.4715 -0.0578 -0.4399
  153H2O     OW  457   2.503   2.551   1.436 -0.2595  0.3697  0.5351
  153H2O    HW1  458   2.551   2.625   1.474  0.1702  0.7815 -0.8113
  153H2O    HW2  459   2.571   2.487   1.414 -0.0511  2.1318 -4.0094
  154H2O     OW  460   0.173   1.925   1.881  0.6176 -0.2945  0.1418
  154H2O    HW1  461   0.100   1.867   1.860 -0.3450  0.6895  0.7255
  154H2O    HW2  462   0.189   1.910   1.974  2.1453 -1.6078 -0.3328
  155H2O     OW  463   0.885   2.250   2.967 -0.2604 -0.9692 -0.5047
  155H2O    HW1  464   0.853   2.340   2.982  0.8247 -0.7028  0.2390
  155H2O    HW2  465   0.826   2.195   3.019  0.3931 -0.4923  0.7390
  156H2O     OW  466   1.363   0.837   1.152  0.1245 -0.3632  0.7123
  156H2O    HW1  467   1.429   0.866   1.089  0.1164 -0.3291  0.7198
  156H2O    HW2  468   1.334   0.752   1.117 -0.5920  0.1206  0.1321
  157H2O     OW  469   0.369   0.222   0.795  0.0913  0.1076 -0.2226
  157H2O    HW1  470   0.433   0.292   0.781  0.1456  0.1846  0.3911
  157H2O    HW2  471   0.391   0.155   0.730  0.9497  0.0326  0.1448
  158H2O     OW  472   1.441   2.270   2.199  0.6459  0.3118 -0.0577
  158H2O    HW1  473   1.386   2.347   2.182 -0.5769 -0.1860  1.6223
  158H2O    HW2  474   1.509   2.275   2.133 -1.5816  0.7872 -2.3334
  159H2O     OW  475   0.733   0.756   0.537 -0.5822 -0.5815  0.4408
  159H2O    HW1  476   0.669   0.687   0.555  0.7306 -1.5413  1.4227
  159H2O    HW2  477   0.716   0.822   0.605 -0.3703 -0.9433  0.8473
  160H2O     OW  478   0.560   0.440   2.843  0.3312  0.5307  0.2954
  160H2O    HW1  479   0.635   0.389   2.873  0.6184 -0.4390 -2.0487
  160H2O    HW2  480   0.580   0.530   2.870  1.4930 -0.0167  1.2677
  161H2O     OW  481   1.566   0.404   0.232 -0.1113 -0.2071 -0.2393
  161H2O    HW1  482   1.512   0.329   0.258 -0.5180 -0.6470 -2.3489
  161H2O    HW2  483   1.642   0.400   0.289 -1.6441 -0.4229  1.7811
  162H2O     OW  484   0.841   0.429   0.946 -0.3276 -0.0314  0.3874
  162H2O    HW1  485   0.749   0.425   0.920 -1.0984 -0.4433  3.1818
  162H2O    HW2  486   0.856   0.522   0.965 -0.2253  0.0039  0.1320
  163H2O     OW  487   1.687   2.763   2.275 -0.5626  0.4101  0.1034
  163H2O    HW1  488   1.686   2.679   2.229 -1.9053 -0.9512  2.5995
  163H2O    HW2  489   1.601   2.802   2.255 -1.6199 -0.7296  2.4902
  164H2O     OW  490   1.544   0.571   2.169  0.5585  0.7655 -0.1932
  164H2O    HW1  491   1.637   0.559   2.149  0.4135  0.3938 -0.6499
  164H2O    HW2  492   1.519   0.648   2.118  0.2910  0.0679 -1.1208
  165H2O     OW  493   1.807   2.199   2.842  0.0349  0.1525 -0.0649
  165H2O    HW1  494   1.860   2.222   2.919  0.1081 -2.0186  0.5373
  165H2O    HW2  495   1.800   2.103   2.846 -0.4509  0.0950 -2.4390
  166H2O     OW  496   0.300   0.955   0.407 -0.2454  0.3111 -0.1386
  166H2O    HW1  497   0.217   1.004   0.398 -0.1262  0.8455  1.8494
  166H2O    HW2  498   0.283   0.892   0.477  0.7753 -0.1416 -0.3093
  167H2O     OW  499   2.317   0.792   1.322 -0.1253  0.7245  0.6591
  167H2O    HW1  500   2.238   0.835   1.289  0.3568  2.1154  1.3298
  167H2O    HW2  501   2.304   0.787   1.416  0.9126  1.5825  0.8413
  168H2O     OW  502   1.790   1.831   0.161  0.6951 -0.2655 -0.4584
  168H2O    HW1  503   1.781   1.925   0.180 -0.6756  0.0858 -2.7851
  168H2O    HW2  504   1.868   1.825   0.106  2.3108 -0.7868  1.9326
  169H2O     OW  505   0.028   1.090   0.206 -0.2385  0.1959  0.4878
  169H2O    HW1  506   0.056   1.130   0.123  0.7433 -0.8678  0.3157
  169H2O    HW2  507  -0.033   1.021   0.180 -0.0739 -0.0158  0.6693
  170H2O     OW  508   2.959   1.655   0.981 -0.0005 -0.0325 -0.3614
  170H2O    HW1  509   3.010   1.616   1.052 -0.5665  0.7042  0.4460
  170H2O    HW2  510   2.869   1.629   0.998 -0.1675  0.3199 -0.6928
  171H2O     OW  511   2.524   1.726   0.378 -0.0328 -0.6316  0.2321
  171H2O    HW1  512   2.454   1.751   0.438  0.5054  2.2197 -0.3525
  171H2O    HW2  513   2.605   1.757   0.420  0.4196  0.5927 -1.5456
  172H2O     OW  514   1.336   2.959   0.298  0.0434 -0.3810  0.1894
  172H2O    HW1  515   1.395   2.886   0.277  0.7766  0.1291  0.4781
  172H2O    HW2  516   1.249   2.926   0.276  0.6695 -0.3027 -2.4925
  173H2O     OW  517   1.888   2.900   1.258 -0.6876 -0.2599 -0.4390
  173H2O    HW1  518   1.827   2.864   1.322 -1.3703  0.2238 -0.8117
  173H2O    HW2  519   1.842   2.976   1.221  1.1252  1.4902  0.9656
  174H2O     OW  520   1.815   2.788   0.234  0.3586  0.3085  0.1278
  174H2O    HW1  521   1.863   2.737   0.299 -0.1480 -0.9723 -0.5133
  174H2O    HW2  522   1.724   2.786   0.263  0.0556 -0.6829 -0.9061
  175H2O     OW  523   0.905   2.955   0.868 -0.2543  0.0454  0.0010
  175H2O    HW1  524   0.892   2.979   0.776 -1.8803 -0.1869  0.1764
  175H2O    HW2  525   0.925   3.038   0.912  2.1881 -0.0894 -0.8731
  176H2O     OW  526   2.537   0.515   0.880 -0.0828  0.1106  0.5105
  176H2O    HW1  527   2.475   0.442   0.889 -1.0210  0.6175 -1.7333
  176H2O    HW2  528   2.504   0.582   0.940 -1.0613 -0.0546  0.1637
  177H2O     OW  529   1.224   0.827   1.539 -0.1516 -0.3196 -0.3657
  177H2O    HW1  530   1.274   0.798   1.616  0.9984  0.6985 -0.7214
  177H2O    HW2  531   1.238   0.922   1.536  0.2670 -0.4461 -2.1651
  178H2O     OW  532   0.446   1.816   1.843 -0.3686 -0.6196  0.3954
  178H2O    HW1  533   0.512   1.878   1.872 -0.8406 -0.1662  0.5023
  178H2O    HW2  534   0.363   1.864   1.851 -0.6613 -1.0400 -0.1488
  179H2O     OW  535   0.859   1.491   2.938  0.1183  0.8606  0.3905
  179H2O    HW1  536   0.840   1.501   2.845  0.6500  0.4420  0.2363
  179H2O    HW2  537   0.955   1.495   2.943  0.2628 -2.6542  0.5150
  180H2O     OW  538   0.071   0.456   1.487 -0.5915  0.7274 -0.4443
  180H2O    HW1  539   0.124   0.515   1.541 -2.1414  1.2024  0.5553
  180H2O    HW2  540   0.028   0.514   1.424  0.6966  0.2499 -1.7785
  181H2O     OW  541   0.752   2.267   1.778 -0.0627 -0.1254 -0.2354
  181H2O    HW1  542   0.786   2.304   1.860 -0.7377 -0.8335  0.3654
  181H2O    HW2  543   0.722   2.343   1.728 -2.1809  0.0607  1.3317
  182H2O     OW  544   1.955   2.364   2.279 -0.2644 -0.0411 -0.5563
  182H2O    HW1  545   1.884   2.339   2.338 -0.1430  0.4134 -0.2136
  182H2O    HW2  546   2.006   2.284   2.268 -1.2801 -0.5736 -1.4352
  183H2O     OW  547   2.314   1.647   2.137  0.3244 -0.0893  0.4898
  183H2O    HW1  548   2.404   1.650   2.106  0.5986 -0.2897  1.2721
  183H2O    HW2  549   2.308   1.566   2.187  0.0667  0.5622  1.5308
  184H2O     OW  550   1.659   1.142   2.772  0.7239 -0.5640 -0.1417
  184H2O    HW1  551   1.691   1.086   2.843  0.8880  0.5452  0.6602
  184H2O    HW2  552   1.662   1.230   2.808  0.9134  0.0154 -1.5757
  185H2O     OW  553   0.166   0.516   0.045  0.1984 -0.1867 -0.3572
  185H2O    HW1  554   0.200   0.511   0.134 -1.4621  1.8804  0.3668
  185H2O    HW2  555   0.213   0.589   0.005 -0.6153  0.2225 -0.5511
  186H2O     OW  556   2.450   0.638   1.134 -0.2919 -0.6974  0.1223
  186H2O    HW1  557   2.538   0.620   1.167  0.5956  1.7384 -0.9430
  186H2O    HW2  558   2.404   0.676   1.209  0.6548  1.4598 -0.3898
  187H2O     OW  559   2.274   2.896   1.311 -0.0710 -0.4183 -0.0052
  187H2O    HW1  560   2.184   2.915   1.285 -0.3346 -0.1099  1.1055
  187H2O    HW2  561   2.292   2.808   1.277 -0.5242 -0.1540 -0.9104
  188H2O     OW  562   2.295   2.388   0.271 -0.1460 -0.0017 -0.1725
  188H2O    HW1  563   2.336   2.463   0.313 -0.3297  0.2953 -0.5172
  188H2O    HW2  564   2.344   2.376   0.190 -0.0838 -0.2854 -0.0923
  189H2O     OW  565   2.137   0.032   0.595  0.0227  0.1550  0.2880
  189H2O    HW1  566   2.231   0.016   0.585 -0.2541  0.0502 -2.1587
  189H2O    HW2  567   2.121   0.018   0.689  2.2661 -0.7396  0.5610
  190H2O     OW  568   2.694   0.526   1.780 -0.3853  0.1456 -0.1245
  190H2O    HW1  569   2.771   0.487   1.822  0.0325  1.8906  0.7294
  190H2O    HW2  570   2.725   0.551   1.693 -0.6723 -1.5254 -0.6923
  191H2O     OW  571   1.422   1.379   1.099 -0.4914  0.4134 -0.3845
  191H2O    HW1  572   1.465   1.456   1.060  1.4455  0.2356  1.4314
  191H2O    HW2  573   1.492   1.316   1.111 -2.0095 -1.4484 -1.3668
  192H2O     OW  574   1.998   2.737   2.231 -0.3320 -0.3909  0.1253
  192H2O    HW1  575   1.981   2.715   2.322 -0.0652 -2.3028 -0.2820
  192H2O    HW2  576   2.051   2.817   2.234 -1.3101  0.1900  1.6073
  193H2O     OW  577   0.304   1.436   1.014 -0.3072 -0.4573  0.0445
  193H2O    HW1  578   0.213   1.411   1.003 -0.5474  0.4808 -0.0848
  193H2O    HW2  579   0.322   1.497   0.942  0.1162  0.1728  0.6715
  194H2O     OW  580   2.298   0.052   1.540  0.0326 -0.0959  0.6402
  194H2O    HW1  581   2.380   0.102   1.543 -0.5248  0.8132  0.8484
  194H2O    HW2  582   2.282   0.039   1.446  0.3701 -0.1954  0.5966
  195H2O     OW  583   1.477   0.385   1.404  0.2894  0.9837  0.5032
  195H2O    HW1  584   1.531   0.306   1.410  0.0136  0.7378 -0.4144
  195H2O    HW2  585   1.431   0.389   1.489 -1.1788 -0.8869 -0.2150
  196H2O     OW  586   1.459   2.906   2.211  0.2351  0.0167 -0.6429
  196H2O    HW1  587   1.371   2.925   2.179  0.5720  0.2943 -1.4051
  196H2O    HW2  588   1.509   2.987   2.196  0.1990  0.3874  1.2581
  197H2O     OW  589   0.301   1.248   2.779  0.2923 -0.5732 -0.0834
  197H2O    HW1  590   0.313   1.256   2.684  0.4145  0.4955  0.0151
  197H2O    HW2  591   0.365   1.309   2.816 -0.5957 -0.0768  0.6385
  198H2O     OW  592   2.228   2.746   0.601 -0.3106  0.0773  0.3154
  198H2O    HW1  593   2.178   2.716   0.677 -2.3428 -0.8920 -1.4356
  198H2O    HW2  594   2.282   2.817   0.635 -0.9665 -0.6007  2.7680
  199H2O     OW  595   2.955   0.072   1.645  0.3601 -0.0916  0.3920
  199H2O    HW1  596   2.903  -0.008   1.634  1.2915 -0.6561  0.1473
  199H2O    HW2  597   3.045   0.042   1.655  0.7030  0.9200  0.4010
  200H2O     OW  598   2.958   2.019   1.537  0.0035  0.3013 -0.1936
  200H2O    HW1  599   3.044   2.053   1.562  0.4030 -2.1870  1.8753
  200H2O    HW2  600   2.924   1.980   1.617 -3.8810  3.0250 -0.5618
  201H2O     OW  601   0.074   0.166   0.837 -0.2526 -0.3431  0.5525
  201H2O    HW1  602   0.165   0.150   0.812 -0.1126  0.3380  0.5973
  201H2O    HW2  603   0.023   0.106   0.784  0.2649 -1.0677  0.8784
  202H2O     OW  604   0.927   3.010   0.086  0.0625 -0.4314 -0.4068
  202H2O    HW1  605   0.918   3.024   0.181  1.6216 -2.0849 -0.0211
  202H2O    HW2  606   0.875   2.931   0.069  5.4894 -4.1149  0.1667
  203H2O     OW  607   2.050   1.676   0.513 -0.1131 -0.0940  0.4531
  203H2O    HW1  608   2.069   1.762   0.550 -0.5975 -0.5248  1.7154
  203H2O    HW2  609   2.134   1.631   0.511  0.2557  0.6654 -0.8519
  204H2O     OW  610   1.286   2.041   2.202  0.4429  0.2346  0.1938
  204H2O    HW1  611   1.326   1.989   2.132  0.9725  0.2647  0.4763
  204H2O    HW2  612   1.349   2.111   2.219  1.8385 -1.6979  2.9946
  205H2O     OW  613   2.688   0.514   3.009  0.6127  0.0798 -0.3056
  205H2O    HW1  614   2.659   0.605   3.014 -0.7290 -0.3747  0.1191
  205H2O    HW2  615   2.781   0.520   2.987 -0.0856  1.4883 -2.8662
  206H2O     OW  616   1.773   2.785   0.795  0.3880  0.1168  0.4101
  206H2O    HW1  617   1.850   2.802   0.850 -0.7001  1.7379  1.4237
  206H2O    HW2  618   1.701   2.775   0.857 -0.1553 -1.8213 -0.5310
  207H2O     OW  619   1.074   0.359   1.968  0.0494  0.6615  0.2783
  207H2O    HW1  620   1.134   0.422   2.008 -0.7271  0.5459  1.6287
  207H2O    HW2  621   1.129   0.283   1.948  0.8211  1.4525 -0.6082
  208H2O     OW  622   0.597   2.427   2.786  0.9992  0.6328  0.3324
  208H2O    HW1  623   0.664   2.367   2.753  0.7816  1.3241 -1.3506
  208H2O    HW2  624   0.614   2.509   2.740  0.6753  1.5780  1.8958
  209H2O     OW  625   1.600   2.477   0.238  0.2492  0.6889 -0.4267
  209H2O    HW1  626   1.581   2.541   0.306  1.9916  0.7131  0.0258
  209H2O    HW2  627   1.592   2.392   0.282  0.6397  0.6789 -0.3783
  210H2O     OW  628   0.846   0.433   0.542 -0.2069  0.0972 -0.0616
  210H2O    HW1  629   0.866   0.520   0.507  0.2858 -0.4754 -1.2364
  210H2O    HW2  630   0.922   0.410   0.595 -0.8264  0.8493  1.1404
  211H2O     OW  631   0.369   1.113   1.791  0.1310 -0.0714 -0.8082
  211H2O    HW1  632   0.350   1.186   1.851 -1.1181 -0.9284 -0.1743
  211H2O    HW2  633   0.403   1.044   1.849  1.5062  0.0778 -1.4360
  212H2O     OW  634   2.031   2.803   0.442 -0.0063 -1.1168 -0.0552
  212H2O    HW1  635   2.097   2.817   0.509  0.4443 -1.0382 -0.5182
  212H2O    HW2  636   2.049   2.870   0.376 -0.4150 -1.2275 -0.2813
  213H2O     OW  637   0.600   2.585   0.632  0.0774 -0.3061 -0.4084
  213H2O    HW1  638   0.669   2.562   0.569 -0.2416 -3.0234  0.2389
  213H2O    HW2  639   0.525   2.531   0.606 -0.9219  0.6279  0.5771
  214H2O     OW  640   1.213   0.773   2.324 -0.6214 -0.0969 -0.3211
  214H2O    HW1  641   1.177   0.732   2.402 -0.0027 -3.9149 -2.0495
  214H2O    HW2  642   1.297   0.811   2.352 -1.0000 -0.3742  1.1488
  215H2O     OW  643   1.043   1.323   0.465  1.2258 -0.2837 -0.2563
  215H2O    HW1  644   1.069   1.343   0.555 -0.3392  0.1699  0.1051
  215H2O    HW2  645   0.995   1.401   0.437 -1.4975 -1.9219 -0.1985
  216H2O     OW  646   2.702   0.527   2.218 -0.7498 -1.3751 -0.0066
  216H2O    HW1  647   2.754   0.608   2.211  0.0372 -1.9921 -1.3227
  216H2O    HW2  648   2.655   0.536   2.301  1.2794 -0.6939  1.0830
  217H2O     OW  649   0.268   2.334   1.795 -0.2580  0.0158 -0.2090
  217H2O    HW1  650   0.326   2.351   1.721  0.3686 -0.8888  0.0713
  217H2O    HW2  651   0.326   2.339   1.872 -0.7068 -0.0924  0.1341
  218H2O     OW  652   1.601   1.740   1.816  0.3917  0.4741  0.4936
  218H2O    HW1  653   1.558   1.656   1.834  0.5040  0.1663 -0.7117
  218H2O    HW2  654   1.663   1.750   1.888  0.9825 -0.8866  0.1800
  219H2O     OW  655   2.346   0.872   0.765  0.0157  1.1088  0.5687
  219H2O    HW1  656   2.412   0.804   0.774 -1.6112 -0.5454 -0.0931
  219H2O    HW2  657   2.270   0.838   0.812 -1.1704  1.9692 -0.7229
  220H2O     OW  658   2.879   1.208   2.909 -0.0158 -0.3453  0.0068
  220H2O    HW1  659   2.825   1.228   2.986 -1.0456 -1.3644 -0.4475
  220H2O    HW2  660   2.867   1.283   2.852  0.3217  0.1687  0.6069
  221H2O     OW  661   0.779   1.506   0.203  0.1726 -0.5633  0.3582
  221H2O    HW1  662   0.730   1.424   0.199  0.2507 -0.6127  0.4150
  221H2O    HW2  663   0.815   1.517   0.115 -0.3542 -0.2732  0.1786
  222H2O     OW  664   1.569   2.458   2.946 -0.3802 -0.6727 -0.2247
  222H2O    HW1  665   1.603   2.455   3.036 -1.5970  1.6617  0.3168
  222H2O    HW2  666   1.616   2.530   2.905 -0.1818 -1.4296 -1.3250
  223H2O     OW  667   1.391   2.966   2.546  0.1516  0.0181 -0.2777
  223H2O    HW1  668   1.483   2.991   2.543 -0.5295  2.6278  0.6541
  223H2O    HW2  669   1.379   2.928   2.633 -0.6597  3.6078  1.1955
  224H2O     OW  670   1.216   0.540   0.415  0.2198  0.6378 -0.0507
  224H2O    HW1  671   1.267   0.562   0.337 -1.2609 -2.3462 -1.8373
  224H2O    HW2  672   1.147   0.606   0.418  0.1160  0.5924 -1.4113
  225H2O     OW  673   2.448   0.136   0.080 -0.3344  0.6055  0.0005
  225H2O    HW1  674   2.391   0.105   0.150  1.3599 -2.1583  0.1549
  225H2O    HW2  675   2.410   0.100  -0.000  0.5485 -0.3103 -0.0080
  226H2O     OW  676   0.729   0.123   2.704  0.2276 -0.0364  0.0248
  226H2O    HW1  677   0.778   0.198   2.672 -2.2232  1.3675 -0.4588
  226H2O    HW2  678   0.748   0.119   2.798 -2.2795  3.2051  0.6815
  227H2O     OW  679   1.390   0.271   2.319  0.2123  0.1230  0.5627
  227H2O    HW1  680   1.383   0.355   2.364  1.2795 -0.3510  1.6284
  227H2O    HW2  681   1.329   0.214   2.365  0.0745  0.0947  0.3460
  228H2O     OW  682   0.149   1.087   1.628 -0.3614  0.6286 -0.1970
  228H2O    HW1  683   0.220   1.042   1.673 -0.8179 -0.7519 -0.8589
  228H2O    HW2  684   0.082   1.100   1.696  0.2544  1.3590  0.2715
  229H2O     OW  685   2.611   0.541   2.455  0.0129  0.1038 -0.3379
  229H2O    HW1  686   2.653   0.624   2.477 -0.4456  0.0304  0.7992
  229H2O    HW2  687   2.655   0.476   2.511 -0.3312 -0.2596 -0.4892
  230H2O     OW  688   1.263   1.524   1.429  0.3353 -0.4664 -0.9695
  230H2O    HW1  689   1.353   1.537   1.459  0.6645 -1.1420 -1.6754
  230H2O    HW2  690   1.264   1.438   1.387 -1.3892 -1.8667  1.8703
  231H2O     OW  691   2.612   2.180   2.940 -0.0998  0.2765  0.4736
  231H2O    HW1  692   2.571   2.235   2.873  1.9373 -0.4893 -1.4407
  231H2O    HW2  693   2.684   2.233   2.973  0.0721 -0.0968  0.6926
  232H2O     OW  694   1.335   0.497   0.830  0.5571 -0.3165  0.1368
  232H2O    HW1  695   1.339   0.549   0.910 -0.7593  1.0767 -0.6907
  232H2O    HW2  696   1.249   0.517   0.793  1.8464  0.3194 -2.4918
  233H2O     OW  697   0.630   1.484   1.704  1.0945  0.1556 -0.0344
  233H2O    HW1  698   0.631   1.411   1.641 -1.3592  0.6750 -0.6962
  233H2O    HW2  699   0.596   1.558   1.654  1.4825  1.1885  1.2429
  234H2O     OW  700   2.527   2.233   2.036  0.6048 -0.2242 -0.1815
  234H2O    HW1  701   2.618   2.210   2.051  0.5053 -1.2653 -1.1539
  234H2O    HW2  702   2.496   2.266   2.120  1.4055 -1.4616  0.6068
  235H2O     OW  703   1.303   1.601   0.662  0.9374 -0.1643 -1.0280
  235H2O    HW1  704   1.255   1.543   0.602  0.0835 -2.2855  1.6805
  235H2O    HW2  705   1.395   1.579   0.649  0.7493 -0.6302 -1.5662
  236H2O     OW  706   1.285   0.575   1.388  0.4442 -0.0899  0.3110
  236H2O    HW1  707   1.353   0.508   1.376  0.0418 -0.6925  1.3702
  236H2O    HW2  708   1.333   0.657   1.394  1.0681 -0.4881  0.8013
  237H2O     OW  709   2.081   2.694   0.857  0.3991 -0.1806 -0.0977
  237H2O    HW1  710   2.160   2.736   0.890  0.6633 -0.1275 -0.8080
  237H2O    HW2  711   2.030   2.674   0.936  1.3999 -0.7789  0.3924
  238H2O     OW  712   2.467   1.718   1.843  0.2445  0.0257  0.2814
  238H2O    HW1  713   2.414   1.644   1.814  1.9224 -1.1667  0.2467
  238H2O    HW2  714   2.471   1.777   1.768 -0.0422 -0.4317 -0.0879
  239H2O     OW  715   2.106   2.066   2.579  0.1980 -0.2313 -0.0915
  239H2O    HW1  716   2.188   2.024   2.606 -0.7959 -1.0967  1.5512
  239H2O    HW2  717   2.038   2.019   2.627 -0.9968  2.6780  1.0543
  240H2O     OW  718   1.241   2.654   0.361  0.4173 -0.5238 -0.3973
  240H2O    HW1  719   1.290   2.574   0.382  0.2522 -0.7315 -0.7896
  240H2O    HW2  720   1.157   2.622   0.328  0.5666 -0.2004 -1.0924
  241H2O     OW  721   2.023   2.788   2.811 -0.1954 -0.3298  0.1642
  241H2O    HW1  722   1.990   2.699   2.822 -1.0400 -0.0391 -0.0426
  241H2O    HW2  723   1.967   2.826   2.743  0.7761  0.0409 -0.4195
  242H2O     OW  724   2.183   0.743   1.566 -0.3332  0.6970 -0.6169
  242H2O    HW1  725   2.249   0.691   1.612  0.9982  0.9174 -2.2735
  242H2O    HW2  726   2.152   0.805   1.633  1.9935  1.3882 -0.1371
  243H2O     OW  727   2.005   1.889   1.585  0.6128  0.0171 -0.3018
  243H2O    HW1  728   1.964   1.975   1.584  0.3513 -0.1131 -0.6052
  243H2O    HW2  729   2.078   1.899   1.647  0.6076  0.4653 -0.3642
  244H2O     OW  730   0.543  -0.000   0.170  0.2193 -0.4744 -0.4284
  244H2O    HW1  731   0.543  -0.060   0.095  1.7280  0.7530 -1.4031
  244H2O    HW2  732   0.516   0.084   0.134  0.8777  0.0986  0.4185
  245H2O     OW  733   1.762   1.778   1.161 -0.0606 -0.0147 -0.0998
  245H2O    HW1  734   1.832   1.795   1.099 -0.7496  0.1752 -0.8317
  245H2O    HW2  735   1.805   1.738   1.236  1.1613  2.3275  0.4421
  246H2O     OW  736   0.962   1.193   2.293  0.4151 -0.1755 -0.1885
  246H2O    HW1  737   0.970   1.138   2.372 -0.1474 -0.6943 -0.4871
  246H2O    HW2  738   0.888   1.155   2.245 -1.0950  1.9266  0.4647
  247H2O     OW  739   1.581   1.529   0.270 -0.1316 -0.3515 -0.3938
  247H2O    HW1  740   1.557   1.580   0.193  1.2261  0.4944 -0.2667
  247H2O    HW2  741   1.653   1.578   0.310 -2.7006  0.6718  2.9506
  248H2O     OW  742   1.844   2.382   0.533 -0.1124 -0.0478  0.3135
  248H2O    HW1  743   1.811   2.464   0.498  2.6104  0.1491 -1.7864
  248H2O    HW2  744   1.916   2.408   0.591  1.2559 -1.0179 -0.9644
  249H2O     OW  745   2.820   1.681   1.327 -0.0328 -0.5687  0.2593
  249H2O    HW1  746   2.847   1.727   1.406  0.1651 -1.2778  0.6090
  249H2O    HW2  747   2.902   1.656   1.284 -0.1394 -0.1871 -0.1637
  250H2O     OW  748   2.749   0.924   1.967  0.3128  0.2488 -0.1549
  250H2O    HW1  749   2.829   0.886   2.004 -0.1968 -0.9308 -0.2912
  250H2O    HW2  750   2.692   0.849   1.950 -0.1754  0.9596 -1.6044
  251H2O     OW  751   3.006   0.214   2.359  0.0408 -0.2606  0.4278
  251H2O    HW1  752   3.020   0.148   2.426  0.1028 -0.9586 -0.2759
  251H2O    HW2  753   2.919   0.250   2.378 -0.1273 -0.7680  0.6073
  252H2O     OW  754   0.900   2.427   0.894  0.4033  0.3743  0.5507
  252H2O    HW1  755   0.817   2.475   0.894 -0.6408 -1.4328 -0.1658
  252H2O    HW2  756   0.952   2.469   0.825 -0.5567  0.4036 -0.1582
  253H2O     OW  757   0.730   0.932   1.323  0.6982  0.0800  0.7236
  253H2O    HW1  758   0.732   0.926   1.418 -2.4235  0.9414  0.8421
  253H2O    HW2  759   0.781   1.011   1.303  2.9823 -1.1600  1.5523
  254H2O     OW  760   2.545   0.299   1.747  0.1696  0.1989 -0.1406
  254H2O    HW1  761   2.602   0.369   1.778  3.1607 -1.6171 -1.4645
  254H2O    HW2  762   2.509   0.259   1.827  1.6597  0.6067  0.7261
  255H2O     OW  763   0.196   2.934   0.655  0.3005  0.1740  0.1361
  255H2O    HW1  764   0.223   2.865   0.716  1.2993 -0.4148 -0.9666
  255H2O    HW2  765   0.275   2.953   0.605 -0.7267  0.0867 -1.5219
  256H2O     OW  766   2.703   0.065   2.043  0.1103  0.1606 -0.4767
  256H2O    HW1  767   2.609   0.077   2.025  0.3355  1.5285 -0.7725
  256H2O    HW2  768   2.710  -0.024   2.077 -1.7174  1.0679  2.2777
  257H2O     OW  769   1.685   0.533   2.874 -0.1576 -0.2454 -0.5064
  257H2O    HW1  770   1.754   0.488   2.923 -0.3729 -0.1617 -0.1293
  257H2O    HW2  771   1.732   0.602   2.826 -0.1883  0.8211  0.9738
  258H2O     OW  772   2.075   0.566   1.117 -0.4747  0.1715 -0.1451
  258H2O    HW1  773   1.984   0.593   1.124 -1.4076 -3.4638  1.6080
  258H2O    HW2  774   2.105   0.559   1.208  1.1458 -0.0420 -0.6950
  259H2O     OW  775   0.364   2.262   0.105  0.3910 -0.1869  0.3058
  259H2O    HW1  776   0.339   2.299   0.021  1.9026 -0.4381 -0.2559
  259H2O    HW2  777   0.347   2.168   0.097 -0.9286  0.0026  0.8184
  260H2O     OW  778   1.807   0.912   1.085  0.3444 -0.2011 -0.2812
  260H2O    HW1  779   1.722   0.869   1.076 -0.0541  0.6749 -0.6958
  260H2O    HW2  780   1.789   0.991   1.137  1.3162 -1.2770  1.6716
  261H2O     OW  781   2.626   0.116   0.357 -0.3327  0.6128  0.3435
  261H2O    HW1  782   2.633   0.186   0.292  1.6399 -1.2490 -1.4230
  261H2O    HW2  783   2.692   0.052   0.331 -0.5078 -0.7821  3.3601
  262H2O     OW  784   0.703   2.711   1.313  0.2269  0.0512  0.1787
  262H2O    HW1  785   0.772   2.648   1.336 -0.0286 -0.0737  0.5866
  262H2O    HW2  786   0.729   2.743   1.226  1.3285  0.7400  0.7635
  263H2O     OW  787   2.884   0.261   1.448 -0.3818  0.0006  0.6812
  263H2O    HW1  788   2.961   0.316   1.435 -0.6674  0.2268 -0.0097
  263H2O    HW2  789   2.908   0.204   1.521 -0.0430  0.9473  1.3057
  264H2O     OW  790   1.135   2.871   1.592 -0.1498 -0.2738 -0.6796
  264H2O    HW1  791   1.130   2.908   1.504 -2.0793 -0.6493 -0.7320
  264H2O    HW2  792   1.062   2.911   1.639 -0.3554 -1.6390  0.1601
  265H2O     OW  793   1.473   1.187   2.578 -0.2702 -0.3453  0.5761
  265H2O    HW1  794   1.529   1.185   2.656  1.2278  0.9323 -0.4902
  265H2O    HW2  795   1.530   1.215   2.507 -1.8257 -0.7826 -0.8632
  266H2O     OW  796   0.316   0.377   2.657 -0.2463 -0.0959 -0.3485
  266H2O    HW1  797   0.367   0.363   2.738  1.2590 -2.3223 -1.6696
  266H2O    HW2  798   0.294   0.288   2.628 -2.2494  0.7830 -1.4539
  267H2O     OW  799   0.298   0.794   2.951  0.3128 -0.1319  0.0451
  267H2O    HW1  800   0.325   0.881   2.923  1.0608 -0.6907 -1.0004
  267H2O    HW2  801   0.311   0.794   3.046  1.2736  0.5614 -0.0823
  268H2O     OW  802   0.264   1.639   2.605 -0.4747 -0.1994  0.4470
  268H2O    HW1  803   0.313   1.671   2.681 -0.0486  0.7121 -0.2138
  268H2O    HW2  804   0.259   1.544   2.618  1.1014 -0.2389  0.7310
  269H2O     OW  805   0.271   1.433   0.719 -0.2403  0.7011  0.1440
  269H2O    HW1  806   0.182   1.399   0.710  0.3422 -1.0411  1.0209
  269H2O    HW2  807   0.260   1.528   0.714 -1.7538  0.3759 -3.1600
  270H2O     OW  808   1.518   0.123   2.820 -0.0781 -0.5135  0.6861
  270H2O    HW1  809   1.598   0.121   2.873  1.5260 -0.3819 -1.7345
  270H2O    HW2  810   1.548   0.109   2.731 -2.4805  2.4191 -0.5701
  271H2O     OW  811   0.170   0.907   2.245 -0.1023  0.3144 -0.3381
  271H2O    HW1  812   0.142   0.979   2.302  0.0736  2.2351 -2.6687
  271H2O    HW2  813   0.261   0.893   2.267 -0.3396  0.3428  0.6416
  272H2O     OW  814   2.810   2.739   2.286 -0.2320  0.1060  1.1103
  272H2O    HW1  815   2.856   2.805   2.234  0.0566  0.1255  1.3967
  272H2O    HW2  816   2.718   2.752   2.264 -0.1511  0.4361  0.9724
  273H2O     OW  817   0.744   2.762   1.030 -0.0038  0.0521  0.2562
  273H2O    HW1  818   0.666   2.811   1.004 -0.9654 -1.3808  0.4087
  273H2O    HW2  819   0.813   2.795   0.973 -0.6673  1.5477  0.3308
  274H2O     OW  820   1.158   2.345   2.616  0.1079  0.3001  0.5789
  274H2O    HW1  821   1.200   2.423   2.652  2.5746 -0.8434  0.1578
  274H2O    HW2  822   1.151   2.285   2.690 -0.9835  0.5799  0.7003
  275H2O     OW  823   2.287   2.400   1.150 -0.1123 -0.0207  0.2229
  275H2O    HW1  824   2.287   2.358   1.236  0.1742 -1.1202 -0.3074
  275H2O    HW2  825   2.202   2.379   1.113  0.5886 -1.3420 -0.6279
  276H2O     OW  826   2.508   1.907   1.645  0.4895  0.3618  0.2569
  276H2O    HW1  827   2.578   1.969   1.664  0.8720  0.4521 -1.4825
  276H2O    HW2  828   2.529   1.872   1.559 -1.0676 -0.3361  0.1572
  277H2O     OW  829   0.816   2.214   1.467  0.4094 -0.0637  0.2305
  277H2O    HW1  830   0.838   2.134   1.419  0.6882  0.3256 -0.3001
  277H2O    HW2  831   0.842   2.196   1.557 -1.3084 -1.2741  0.4819
  278H2O     OW  832   0.752   2.722   2.073 -0.0168  0.0053 -0.2092
  278H2O    HW1  833   0.675   2.707   2.017 -0.5396  0.1607  0.4707
  278H2O    HW2  834   0.722   2.698   2.161  0.4042  1.0613  0.2193
  279H2O     OW  835   2.693   0.256   2.815  0.8046 -0.0463 -0.1684
  279H2O    HW1  836   2.754   0.208   2.870 -0.9936  0.0471  1.9038
  279H2O    HW2  837   2.719   0.348   2.824  0.4233 -0.0144  0.6638
  280H2O     OW  838   0.494   2.557   2.006  0.3712 -0.3128 -0.1423
  280H2O    HW1  839   0.546   2.537   1.928  0.6030  1.1115 -0.3556
  280H2O    HW2  840   0.475   2.471   2.045  0.8273 -0.9814 -1.3883
  281H2O     OW  841   2.288  -0.014   2.711 -0.0501  0.3247  0.0283
  281H2O    HW1  842   2.276  -0.054   2.798  1.4077  1.6861  0.8455
  281H2O    HW2  843   2.269   0.079   2.724  3.2687  1.0822 -0.4314
  282H2O     OW  844   2.247   1.900   1.733 -0.0430 -0.0368  0.2205
  282H2O    HW1  845   2.332   1.905   1.689 -0.2997  2.1498  0.0176
  282H2O    HW2  846   2.260   1.945   1.816 -0.6467 -0.8279  0.7453
  283H2O     OW  847   1.243   2.544   1.672 -0.3000  0.2021 -0.1326
  283H2O    HW1  848   1.309   2.612   1.686 -0.3103  0.2821 -0.4785
  283H2O    HW2  849   1.266   2.506   1.587  0.1479 -0.7152  0.3959
  284H2O     OW  850   2.907   1.085   0.980 -0.1379 -0.3734 -0.1344
  284H2O    HW1  851   2.866   1.105   0.896 -1.7230 -0.2902  0.6545
  284H2O    HW2  852   2.833   1.072   1.040  0.9871 -0.6444  1.1880
  285H2O     OW  853   0.977   2.505   2.246 -0.3012  0.5402  0.0032
  285H2O    HW1  854   1.034   2.569   2.203 -1.5859  2.4958  1.1541
  285H2O    HW2  855   0.901   2.557   2.275 -0.8892 -1.3258  1.8073
  286H2O     OW  856   0.958   1.763   2.963  0.4009 -0.2969 -0.4608
  286H2O    HW1  857   0.983   1.719   2.882  0.5573  1.8991 -1.6037
  286H2O    HW2  858   0.882   1.817   2.939  0.0749 -0.1118  0.9780
  287H2O     OW  859   2.921   0.372   1.827  0.3061  0.2112  0.6093
  287H2O    HW1  860   2.943   0.332   1.911  0.5945 -0.8266  0.0498
  287H2O    HW2  861   2.934   0.301   1.763  1.3703  1.3613 -0.4537
  288H2O     OW  862   0.385   0.456   1.962  0.4836  0.1171  0.6151
  288H2O    HW1  863   0.298   0.427   1.934 -0.1398 -0.0020  2.6596
  288H2O    HW2  864   0.443   0.383   1.940 -0.0909 -0.2027  0.1632
  289H2O     OW  865   2.014   2.391   1.849  0.2936  0.1541 -0.0394
  289H2O    HW1  866   2.054   2.362   1.931 -1.0853  0.3295  0.6979
  289H2O    HW2  867   1.946   2.325   1.831 -0.4005  0.9386 -0.2626
  290H2O     OW  868   2.258   2.843   2.038  0.1560  0.1453 -0.4314
  290H2O    HW1  869   2.304   2.846   1.955  1.2566  1.4519  0.2310
  290H2O    HW2  870   2.311   2.895   2.098 -1.1627  0.0691  0.8308
  291H2O     OW  871   0.744   2.967   0.373  0.1113  0.2646 -0.1978
  291H2O    HW1  872   0.671   2.943   0.315 -2.2413 -0.3936  3.0463
  291H2O    HW2  873   0.731   3.060   0.390 -1.0276 -0.2749  1.8851
  292H2O     OW  874   1.864   1.718   1.965 -0.0573  0.8313 -0.1487
  292H2O    HW1  875   1.844   1.805   2.001  0.0686  0.0970  1.6886
  292H2O    HW2  876   1.922   1.678   2.030 -0.6715 -0.9052 -0.6786
  293H2O     OW  877   2.855   1.117   1.373  0.3815 -0.1214 -0.2276
  293H2O    HW1  878   2.939   1.161   1.366  0.6681 -0.8559 -1.3895
  293H2O    HW2  879   2.792   1.187   1.391  1.7698 -0.0254  4.2144
  294H2O     OW  880   2.470   1.505   1.501  0.2302  0.3978 -0.2355
  294H2O    HW1  881   2.561   1.530   1.516  0.0009  1.0384  0.0927
  294H2O    HW2  882   2.433   1.577   1.451  0.3681 -0.6678 -1.8742
  295H2O     OW  883   1.005   2.304   0.340 -0.1843  0.5074  0.2487
  295H2O    HW1  884   0.995   2.210   0.328  0.3237  0.6048 -0.9051
  295H2O    HW2  885   1.099   2.319   0.345 -0.2821  0.8721  1.1065
  296H2O     OW  886   1.679   0.547   2.579 -0.4429  0.3094 -0.2714
  296H2O    HW1  887   1.741   0.567   2.509  0.9803  0.9327  1.1697
  296H2O    HW2  888   1.691   0.617   2.643 -1.8216 -0.2024  0.5505
  297H2O     OW  889   2.283   2.312   0.640  0.5573  0.3332  0.7185
  297H2O    HW1  890   2.354   2.249   0.649 -0.8960 -1.5506 -0.9433
  297H2O    HW2  891   2.324   2.389   0.601  1.4194 -1.2206 -1.4179
  298H2O     OW  892   1.838   0.477   1.361  0.2287  0.0412 -0.6847
  298H2O    HW1  893   1.834   0.413   1.432  1.4931  1.4912  0.6911
  298H2O    HW2  894   1.910   0.535   1.385 -0.3262  1.4373 -2.4028
  299H2O     OW  895   1.328   2.030   0.296 -0.4708  0.3604 -0.1356
  299H2O    HW1  896   1.393   1.992   0.356 -2.0159  0.2388  1.4455
  299H2O    HW2  897   1.309   1.959   0.234  0.7782  0.3352 -0.4929
  300H2O     OW  898   1.718   0.900   2.343 -0.1280 -0.3318 -0.4237
  300H2O    HW1  899   1.767   0.848   2.407 -0.5435 -1.4521 -1.0103
  300H2O    HW2  900   1.780   0.913   2.271  0.7507  2.0121  0.7788
  301H2O     OW  901   1.482   1.114   2.104  0.1835  0.9083  0.4649
  301H2O    HW1  902   1.426   1.146   2.034 -1.0178 -1.5797  0.2783
  301H2O    HW2  903   1.426   1.115   2.182  0.7660  1.2962  0.8756
  302H2O     OW  904   2.216   1.129   2.289 -0.2037  0.1451  0.3058
  302H2O    HW1  905   2.287   1.081   2.332  0.5033 -2.1590 -3.4216
  302H2O    HW2  906   2.259   1.198   2.239 -0.7337  0.3458  0.1183
  303H2O     OW  907   1.317   0.331   1.181 -0.3545 -0.0875  0.1346
  303H2O    HW1  908   1.240   0.275   1.195 -1.1730  1.3112  1.2083
  303H2O    HW2  909   1.371   0.316   1.259  0.8225 -1.6713 -0.9948
  304H2O     OW  910   0.536   1.723   0.707  0.4335 -0.5640 -0.0987
  304H2O    HW1  911   0.485   1.701   0.629  0.5197  0.9263 -0.5721
  304H2O    HW2  912   0.619   1.677   0.696  0.8325  0.4490 -1.3636
  305H2O     OW  913   1.222   1.872   2.425 -0.0647  0.4298 -0.0803
  305H2O    HW1  914   1.219   1.935   2.352  1.9748  0.6168 -0.0054
  305H2O    HW2  915   1.284   1.911   2.487 -1.3268 -0.0388  1.4705
  306H2O     OW  916   0.609   2.656   2.610  0.0240  0.4446 -0.1284
  306H2O    HW1  917   0.538   2.647   2.547  0.8077  2.0474 -1.2341
  306H2O    HW2  918   0.597   2.743   2.648  1.3064  0.6552 -0.2096
  307H2O     OW  919   1.722   2.869   2.818  0.7392 -0.1575  0.2487
  307H2O    HW1  920   1.635   2.873   2.779  0.8120  0.9277  0.1862
  307H2O    HW2  921   1.778   2.836   2.748  0.1858 -1.9136  0.6285
  308H2O     OW  922   0.253   1.521   1.563 -0.0226 -0.5211  0.0396
  308H2O    HW1  923   0.331   1.576   1.567  0.1932 -0.7070 -1.5863
  308H2O    HW2  924   0.180   1.582   1.563  0.2904 -0.1660 -4.2587
  309H2O     OW  925   1.656   0.036   2.578 -0.3613  0.1847  0.7483
  309H2O    HW1  926   1.714  -0.003   2.512 -1.6150 -0.3962 -0.0410
  309H2O    HW2  927   1.689   0.124   2.591  2.9084 -1.3835  3.0264
  310H2O     OW  928   2.069   0.176   2.475  0.1997 -0.5314  0.4450
  310H2O    HW1  929   2.009   0.136   2.411 -0.5197 -0.4770  1.0922
  310H2O    HW2  930   2.152   0.185   2.427 -1.1479  2.1288 -1.3690
  311H2O     OW  931   1.411   1.961   1.976  0.2933  0.4738  0.2769
  311H2O    HW1  932   1.363   1.880   1.956  0.8995  0.4454 -1.0695
  311H2O    HW2  933   1.503   1.938   1.961  0.4864  1.3385  0.1548
  312H2O     OW  934   0.916   2.909   2.216  0.8681 -0.9726 -0.0545
  312H2O    HW1  935   0.870   2.841   2.167  0.7519 -0.5995 -0.4694
  312H2O    HW2  936   0.858   2.985   2.212  1.1548 -0.7442  0.1055
  313H2O     OW  937   0.529   0.256   1.593 -0.2808  0.4240 -0.5101
  313H2O    HW1  938   0.607   0.264   1.537 -1.3800  1.5266 -1.8835
  313H2O    HW2  939   0.464   0.313   1.551 -1.6093  0.0115  1.0135
  314H2O     OW  940   0.339   1.967   0.049  1.1006 -0.0658  0.2757
  314H2O    HW1  941   0.397   1.989  -0.024  1.2332 -2.4738 -0.3628
  314H2O    HW2  942   0.345   1.872   0.057 -0.8588 -0.0836  1.8046
  315H2O     OW  943   2.332   0.075   0.320 -0.1594  0.3643  0.8454
  315H2O    HW1  944   2.353   0.065   0.412  0.7372 -1.6735  0.4150
  315H2O    HW2  945   2.236   0.084   0.318 -0.2176 -0.0504  1.9137
  316H2O     OW  946   0.449   1.439   0.209  0.4833  0.4639  0.1460
  316H2O    HW1  947   0.379   1.378   0.185  1.3033 -0.3717 -0.1092
  316H2O    HW2  948   0.526   1.384   0.221  1.2341  1.4587 -0.1361
  317H2O     OW  949   2.113   1.408   1.116 -0.6131 -0.4095  0.0199
  317H2O    HW1  950   2.093   1.316   1.098  0.2148 -0.8605  1.4812
  317H2O    HW2  951   2.083   1.422   1.205 -1.4389  0.9450 -0.4778
  318H2O     OW  952   0.608   2.376   1.359  0.4797  0.3097  0.3972
  318H2O    HW1  953   0.593   2.315   1.287  1.0666 -0.7065  1.1493
  318H2O    HW2  954   0.687   2.344   1.402  0.1065  0.9071  1.5162
  319H2O     OW  955   2.930   2.269   2.351 -0.6018 -0.8529  0.1118
  319H2O    HW1  956   2.885   2.218   2.417 -0.0141  0.2348  1.3467
  319H2O    HW2  957   2.987   2.328   2.400 -0.5674  0.3229 -1.3368
  320H2O     OW  958   0.113   2.327   2.145 -0.4189  0.1711 -0.2357
  320H2O    HW1  959   0.044   2.300   2.206 -2.9328 -0.8580 -3.5725
  320H2O    HW2  960   0.068   2.379   2.079  2.4917  2.0991 -0.6718
  321H2O     OW  961   0.217   2.099   0.653  0.1745  0.4065  0.9854
  321H2O    HW1  962   0.206   2.013   0.694 -0.4905  0.1888  0.3535
  321H2O    HW2  963   0.191   2.085   0.562 -0.9268  1.5258  1.1300
  322H2O     OW  964   2.548   0.756   1.893 -0.4550 -0.0388 -0.3622
  322H2O    HW1  965   2.569   0.668   1.862 -0.6632 -0.8683  1.8438
  322H2O    HW2  966   2.457   0.749   1.923 -0.3426  0.8259  0.1647
  323H2O     OW  967   2.461   1.255   0.201  0.9115  0.3628  0.0525
  323H2O    HW1  968   2.495   1.291   0.283  2.2127  0.6293 -0.6098
  323H2O    HW2  969   2.366   1.265   0.208  0.9800 -0.3834  1.8905
  324H2O     OW  970   0.030   2.173   0.998 -0.6301 -0.1730 -0.4922
  324H2O    HW1  971   0.030   2.157   1.092  0.4615  2.7708  0.0023
  324H2O    HW2  972  -0.009   2.094   0.960  2.0602 -2.7620  2.1899
  325H2O     OW  973   0.637   0.979   0.690  0.6719 -0.2795 -0.3976
  325H2O    HW1  974   0.663   0.939   0.772  0.2927 -1.3648 -0.7946
  325H2O    HW2  975   0.580   1.051   0.715 -0.8431 -1.6884  0.2308
  326H2O     OW  976   2.879   1.618   2.720  0.3634 -0.2767  0.4725
  326H2O    HW1  977   2.846   1.631   2.809  0.2150 -0.3183  0.4235
  326H2O    HW2  978   2.960   1.569   2.732  1.4486  1.5593  0.7200
  327H2O     OW  979  -0.009   2.747   1.988  0.3750 -0.1651 -0.2175
  327H2O    HW1  980  -0.008   2.800   2.068 -0.0514  0.1565 -0.4283
  327H2O    HW2  981   0.083   2.725   1.974  0.7349  1.7323 -0.9263
  328H2O     OW  982   1.203   0.003   2.217  0.0724  0.0727  0.4790
  328H2O    HW1  983   1.110   0.019   2.200  0.8058  1.7327 -1.9881
  328H2O    HW2  984   1.220   0.047   2.300 -0.5585  2.6212 -0.7253
  329H2O     OW  985   0.523   2.102   2.877 -0.0588  0.2275  0.0544
  329H2O    HW1  986   0.453   2.162   2.848 -0.5464 -1.2509 -1.8046
  329H2O    HW2  987   0.595   2.119   2.817  0.2412 -0.1921  0.2999
  330H2O     OW  988   0.092   0.894   1.034 -0.2445  0.2602 -0.2009
  330H2O    HW1  989   0.053   0.982   1.032  0.9813  0.8189  0.4297
  330H2O    HW2  990   0.017   0.835   1.038 -1.1247  1.2209 -2.4256
  331H2O     OW  991   1.353   0.181   0.936  0.2715  0.0693  0.4555
  331H2O    HW1  992   1.307   0.225   0.864 -1.3316  0.5808  1.7977
  331H2O    HW2  993   1.364   0.249   1.002  0.1744 -0.8718  1.4254
  332H2O     OW  994   2.350   0.321   0.914  0.3406  0.8159  0.2161
  332H2O    HW1  995   2.292   0.334   0.839  2.6962  1.3479 -1.5527
  332H2O    HW2  996   2.364   0.227   0.919  0.2720  0.7887 -0.1135
  333H2O     OW  997   1.782   1.523   2.405 -0.0324 -0.5605  0.4736
  333H2O    HW1  998   1.719   1.515   2.333  0.5078 -1.2535  0.0766
  333H2O    HW2  999   1.851   1.459   2.384 -0.7175 -1.9623  2.4826
  334H2O     OW 1000   0.486   0.706   1.255  1.0003 -0.2974  0.4825
  334H2O    HW1 1001   0.460   0.798   1.259  3.2889  0.3516  0.0580
  334H2O    HW2 1002   0.516   0.686   1.344  3.1281  0.1189 -0.1445
  335H2O     OW 1003   2.966   0.965   0.588 -1.2020 -0.2857  0.0125
  335H2O    HW1 1004   3.035   1.015   0.631 -0.6956 -1.6351  0.7683
  335H2O    HW2 1005   2.925   1.027   0.527 -0.5713  1.0341  0.9469
  336H2O     OW 1006   2.317   2.072   1.940 -0.2939  0.3414 -0.4044
  336H2O    HW1 1007   2.409   2.086   1.960 -0.5835 -0.0038  1.1864
  336H2O    HW2 1008   2.279   2.160   1.937  0.1210  0.4880 -1.1931
  337H2O     OW 1009   0.751   1.876   0.272 -0.5267 -0.2853  0.0283
  337H2O    HW1 1010   0.754   1.784   0.296  0.5378  0.4720  2.8311
  337H2O    HW2 1011   0.842   1.904   0.272 -0.8652  0.8298 -0.5547
  338H2O     OW 1012   1.388   0.961   0.679  0.2233 -0.4536 -0.4806
  338H2O    HW1 1013   1.355   1.049   0.663  0.3158 -0.4702 -0.7713
  338H2O    HW2 1014   1.445   0.943   0.604 -1.5292 -1.5830 -1.5571
  339H2O     OW 1015   2.140   0.437   2.241  0.3857 -0.4365 -0.2805
  339H2O    HW1 1016   2.149   0.499   2.314 -2.3019 -0.3970  0.0184
  339H2O    HW2 1017   2.189   0.360   2.269 -0.0659 -0.1553  1.2655
  340H2O     OW 1018   1.404   2.166   2.890 -0.2152  0.1821  0.3462
  340H2O    HW1 1019   1.476   2.229   2.886  2.0990 -2.4324  1.2804
  340H2O    HW2 1020   1.408   2.129   2.978  0.3319 -3.5425 -1.2241
  341H2O     OW 1021   2.345   0.407   1.306 -0.2576 -0.2810  0.3573
  341H2O    HW1 1022   2.428   0.369   1.335  0.4822  1.8126  1.0260
  341H2O    HW2 1023   2.368   0.461   1.231 -1.2751 -1.0866 -0.5250
  342H2O     OW 1024   1.822   2.176   0.143 -0.1080 -0.3933  0.0581
  342H2O    HW1 1025   1.904   2.126   0.136  1.6904  2.2913  2.1105
  342H2O    HW2 1026   1.842   2.260   0.101 -1.6145  0.5202  1.1920
  343H2O     OW 1027   0.006   1.921   0.526  0.1075 -0.1125 -0.2329
  343H2O    HW1 1028   0.081   1.927   0.467  1.4780  2.5925  1.7895
  343H2O    HW2 1029   0.025   1.847   0.583  0.3760 -0.5855 -0.9362
  344H2O     OW 1030   1.244   1.707   0.062 -0.2322 -0.0196 -0.3573
  344H2O    HW1 1031   1.180   1.676  -0.002 -1.4976  0.5224  0.6439
  344H2O    HW2 1032   1.283   1.628   0.098 -1.5448 -0.3668  0.2722
  345H2O     OW 1033   1.542   2.772   0.994  0.1911  0.0404  0.7131
  345H2O    HW1 1034   1.538   2.827   1.072 -0.2848  0.5385  0.3379
  345H2O    HW2 1035   1.452   2.740   0.983  0.2643 -0.0543  0.3870
  346H2O     OW 1036   2.066   0.894   1.341 -0.8237  0.4614  0.6796
  346H2O    HW1 1037   1.992   0.903   1.281 -0.8242  0.6294  0.7032
  346H2O    HW2 1038   2.030   0.852   1.418 -0.8873  0.5092  0.6764
  347H2O     OW 1039   1.264   1.090   1.526  0.3256  0.3913 -0.4484
  347H2O    HW1 1040   1.175   1.102   1.561  0.9388  1.2826  0.8146
  347H2O    HW2 1041   1.273   1.157   1.459  0.4568  1.0656  0.2378
  348H2O     OW 1042   0.284   0.223   1.803  0.6047  0.0023  0.2454
  348H2O    HW1 1043   0.231   0.231   1.724 -1.1544 -0.7674  1.3558
  348H2O    HW2 1044   0.375   0.231   1.772 -0.1356  0.9157 -1.6823
  349H2O     OW 1045   1.126   2.861   1.021 -0.8080 -0.1230 -0.4908
  349H2O    HW1 1046   1.071   2.913   0.964  2.1279  2.1534 -1.2264
  349H2O    HW2 1047   1.194   2.826   0.964  2.2737  2.3686  1.6653
  350H2O     OW 1048   2.097   2.251   1.028 -0.2253 -0.2551  0.7785
  350H2O    HW1 1049   2.009   2.224   1.052 -0.9985  1.2991 -0.2982
  350H2O    HW2 1050   2.128   2.181   0.970 -1.7481  0.5448 -1.0000
  351H2O     OW 1051   1.179   2.378   2.335 -0.3646  0.4245  0.3575
  351H2O    HW1 1052   1.098   2.408   2.293  0.3228  2.0421  0.1607
  351H2O    HW2 1053   1.150   2.337   2.416 -1.6344 -1.9450 -1.2839
  352H2O     OW 1054   1.220   2.492   1.401 -0.2031 -0.5550  0.2441
  352H2O    HW1 1055   1.124   2.494   1.402 -0.1875  0.7108 -0.3611
  352H2O    HW2 1056   1.242   2.415   1.350 -0.9005 -0.3190 -0.4158
  353H2O     OW 1057   2.004   1.481   0.163 -0.3679  0.0588 -0.3221
  353H2O    HW1 1058   1.966   1.544   0.225 -0.8417  1.2402 -1.8157
  353H2O    HW2 1059   1.984   1.517   0.077  2.6367 -0.2383 -1.1294
  354H2O     OW 1060   0.218   1.105   2.043  0.0296  0.7479 -0.1719
  354H2O    HW1 1061   0.235   1.050   2.120 -1.0898 -0.1810 -0.5862
  354H2O    HW2 1062   0.143   1.064   2.001 -0.0393  1.8989 -1.1604
  355H2O     OW 1063   0.935   1.581   0.407 -0.0415  0.0897  0.2318
  355H2O    HW1 1064   0.883   1.570   0.327  1.3626  0.9590 -0.7957
  355H2O    HW2 1065   1.009   1.635   0.380  0.0864  0.9268  2.2764
  356H2O     OW 1066   0.567   0.434   0.793  0.5002 -0.4411 -0.0466
  356H2O    HW1 1067   0.554   0.507   0.853 -0.3563  0.1978 -1.0279
  356H2O    HW2 1068   0.561   0.473   0.706 -1.1935 -1.9045 -0.5704
  357H2O     OW 1069   1.374   2.400   1.103  0.3350 -0.2824  0.1859
  357H2O    HW1 1070   1.468   2.380   1.110  0.1414 -0.9247  0.9002
  357H2O    HW2 1071   1.366   2.486   1.146  0.7955  0.3422 -0.9605
  358H2O     OW 1072   0.284   2.841   2.915  0.6120  0.5886  0.1147
  358H2O    HW1 1073   0.216   2.897   2.952  1.1698  0.4013  1.4491
  358H2O    HW2 1074   0.365   2.891   2.927  0.9479  0.0230  0.1936
  359H2O     OW 1075   2.478   2.085   0.143 -0.5269  0.1981  0.7434
  359H2O    HW1 1076   2.546   2.114   0.082  0.8332 -0.1952  2.0802
  359H2O    HW2 1077   2.432   2.015   0.097  1.2952 -0.9421  0.6704
  360H2O     OW 1078   0.237   1.969   1.067  0.0333 -0.4810  0.7245
  360H2O    HW1 1079   0.270   2.017   1.143 -0.0398  0.0126  0.4435
  360H2O    HW2 1080   0.163   2.021   1.036 -1.3453 -1.8830  1.6794
  361H2O     OW 1081   1.105   2.832   0.522  0.1820  0.5015 -0.5536
  361H2O    HW1 1082   1.045   2.774   0.568 -0.2554  2.4508  1.3057
  361H2O    HW2 1083   1.159   2.773   0.469 -1.5159 -1.4558 -0.1159
  362H2O     OW 1084   0.692   0.247   0.406 -0.8001 -0.7194 -0.6997
  362H2O    HW1 1085   0.635   0.298   0.348 -0.7741 -0.9031 -0.8914
  362H2O    HW2 1086   0.731   0.311   0.465 -2.9563 -0.8841  0.9185
  363H2O     OW 1087   0.813   0.655   1.278  0.1931 -0.0268  0.3647
  363H2O    HW1 1088   0.760   0.575   1.277 -1.6572  1.2311 -1.4183
  363H2O    HW2 1089   0.751   0.725   1.298  1.2747  1.3723 -1.1844
  364H2O     OW 1090   1.305   1.020   2.918  0.5114 -0.3484 -0.0946
  364H2O    HW1 1091   1.346   0.981   2.995  2.2342 -1.0254 -1.3524
  364H2O    HW2 1092   1.340   1.109   2.915 -0.3871  0.0274  0.5195
  365H2O     OW 1093   0.395   2.016   2.212  0.9509 -0.0751  0.1812
  365H2O    HW1 1094   0.464   1.976   2.159  1.8978  0.7870  0.7524
  365H2O    HW2 1095   0.441   2.079   2.268 -0.2858  0.4234  0.6483
  366H2O     OW 1096   2.535   2.616   2.860 -0.8366 -0.2073  0.1641
  366H2O    HW1 1097   2.587   2.561   2.802 -0.7630 -0.6265  0.6302
  366H2O    HW2 1098   2.595   2.637   2.932 -0.9695  0.2040  0.1561
  367H2O     OW 1099   1.460   2.643   2.016  0.0945  0.4790  0.4144
  367H2O    HW1 1100   1.548   2.617   1.988  0.3128 -0.2378  1.8001
  367H2O    HW2 1101   1.401   2.588   1.964  0.4654  1.0464 -0.6040
  368H2O     OW 1102   2.579   0.093   1.586 -0.6490  0.1087 -0.1904
  368H2O    HW1 1103   2.568   0.174   1.635  0.0616  0.4172 -0.5542
  368H2O    HW2 1104   2.658   0.053   1.622 -1.5003 -0.8581  0.6131
  369H2O     OW 1105   2.054   2.498   0.241  0.1147 -0.5861  0.4468
  369H2O    HW1 1106   2.142   2.462   0.245 -0.5700 -2.1323  2.2197
  369H2O    HW2 1107   2.037   2.530   0.330 -0.8515  0.2484 -0.0457
  370H2O     OW 1108   1.740   0.487   0.869  0.0222  0.0168  0.0065
  370H2O    HW1 1109   1.676   0.425   0.834  1.4592 -2.0443  1.0340
  370H2O    HW2 1110   1.778   0.442   0.945  3.2484  0.9251 -1.0647
  371H2O     OW 1111   2.264   0.610   0.417 -0.3036  0.3316 -0.1966
  371H2O    HW1 1112   2.225   0.540   0.365  0.7033 -0.1718 -0.2737
  371H2O    HW2 1113   2.221   0.602   0.503 -0.4007 -0.1989 -0.2912
  372H2O     OW 1114   0.763   2.940   1.901  0.7303  0.2066 -0.2541
  372H2O    HW1 1115   0.672   2.970   1.908  1.9288  3.2651  1.8817
  372H2O    HW2 1116   0.767   2.863   1.959  0.0590  1.3635  1.3374
  373H2O     OW 1117   1.568   1.851   1.329 -0.1961  0.2989 -0.4803
  373H2O    HW1 1118   1.593   1.809   1.412 -2.6841 -0.0076  0.1215
  373H2O    HW2 1119   1.632   1.819   1.266  0.8034 -0.6651  1.0089
  374H2O     OW 1120   1.471  -0.005   1.120  0.1158 -0.7532 -0.4505
  374H2O    HW1 1121   1.430   0.059   1.061 -1.1721  0.7084  2.0076
  374H2O    HW2 1122   1.398  -0.045   1.167  1.2530 -0.4858  1.5752
  375H2O     OW 1123   2.103   1.651   2.572 -0.4888  0.0948 -0.4590
  375H2O    HW1 1124   2.032   1.716   2.575 -0.9803 -0.4601 -0.2038
  375H2O    HW2 1125   2.178   1.697   2.609 -0.9967  0.3272  0.2911
  376H2O     OW 1126   1.048   1.998   0.649  0.2426  0.2378 -0.6600
  376H2O    HW1 1127   1.027   1.907   0.669 -0.5419  0.6762  0.4562
  376H2O    HW2 1128   0.964   2.040   0.633  0.5920  0.8177 -0.9977
  377H2O     OW 1129   0.608   0.676   1.498  0.0555 -0.2680 -0.1752
  377H2O    HW1 1130   0.659   0.756   1.512 -1.3067  0.4492  0.7036
  377H2O    HW2 1131   0.669   0.605   1.515  1.7416  0.6131 -2.6746
  378H2O     OW 1132   1.937   2.497   2.747  0.0462  0.0501 -0.8065
  378H2O    HW1 1133   1.870   2.448   2.700  1.1713 -1.3186 -0.9704
  378H2O    HW2 1134   1.917   2.484   2.839  0.7499 -1.2670 -0.8404
  379H2O     OW 1135   0.329   2.325   1.029 -0.3004 -0.3904 -0.4388
  379H2O    HW1 1136   0.374   2.408   1.015 -0.0817 -0.3595  0.4401
  379H2O    HW2 1137   0.288   2.305   0.944 -1.5750  1.3141 -0.2154
  380H2O     OW 1138   2.264   1.684   1.182 -0.7753  0.3632 -0.3569
  380H2O    HW1 1139   2.209   1.607   1.192  0.5568 -0.3725  1.1674
  380H2O    HW2 1140   2.298   1.702   1.270  3.4763 -0.7000 -1.7611
  381H2O     OW 1141   0.543   0.640   0.973  0.4551  0.1482 -0.1352
  381H2O    HW1 1142   0.457   0.663   0.937 -0.5067 -1.0852  1.3600
  381H2O    HW2 1143   0.544   0.680   1.060  1.0033 -0.6627  0.2330
  382H2O     OW 1144   2.229   0.899   0.372 -0.1567 -0.5128 -0.1933
  382H2O    HW1 1145   2.291   0.944   0.429 -0.3792  1.0837 -1.2279
  382H2O    HW2 1146   2.246   0.806   0.387 -0.8672 -0.0836  3.2118
  383H2O     OW 1147   2.465   2.340   2.289 -0.2769  0.5535 -0.0839
  383H2O    HW1 1148   2.425   2.391   2.360 -0.0381  2.2277 -1.1557
  383H2O    HW2 1149   2.557   2.334   2.312 -0.4719 -0.1460  0.5002
  384H2O     OW 1150   1.824   2.317   0.932 -0.2816 -0.4453 -0.0090
  384H2O    HW1 1151   1.899   2.374   0.912 -0.5881  0.8122  2.4571
  384H2O    HW2 1152   1.820   2.257   0.857  1.3552  1.3890 -1.5945
  385H2O     OW 1153   2.692   1.383   1.977  0.8313  0.1505  0.2078
  385H2O    HW1 1154   2.618   1.361   2.034  1.9403 -0.2080  1.5120
  385H2O    HW2 1155   2.698   1.309   1.916 -0.4991  0.6437 -0.5211
  386H2O     OW 1156   1.891   0.438   0.030  0.5216 -0.0116  0.0581
  386H2O    HW1 1157   1.855   0.375   0.093 -0.8506  0.9781  0.2755
  386H2O    HW2 1158   1.986   0.427   0.036  0.3140 -1.3242  0.8606
  387H2O     OW 1159   1.115   0.674   1.887 -0.2029 -0.0747 -0.1120
  387H2O    HW1 1160   1.141   0.598   1.836  0.9445  0.8349 -0.8787
  387H2O    HW2 1161   1.153   0.660   1.974  1.4365  0.4637 -0.7522
  388H2O     OW 1162   0.584   0.971   2.447  0.2054 -0.4511 -0.3748
  388H2O    HW1 1163   0.513   0.972   2.512  0.5922 -0.4736  0.0470
  388H2O    HW2 1164   0.548   0.921   2.374 -0.7870  0.8851 -0.8039
  389H2O     OW 1165   0.614   1.201   2.966  0.0371 -0.4238 -0.6019
  389H2O    HW1 1166   0.595   1.219   3.058  1.4156  0.1447 -0.4256
  389H2O    HW2 1167   0.672   1.272   2.939 -3.0999  1.2696 -2.8695
  390H2O     OW 1168   2.467   0.641   0.172 -0.5781 -0.3195  0.0386
  390H2O    HW1 1169   2.437   0.621   0.260 -0.1116  2.0115  0.7304
  390H2O    HW2 1170   2.551   0.685   0.184 -0.4561 -0.1089 -1.5531
  391H2O     OW 1171   2.305   0.779   2.915  0.4799 -0.0255 -0.4773
  391H2O    HW1 1172   2.375   0.832   2.877  1.1234  0.0266  0.8081
  391H2O    HW2 1173   2.350   0.707   2.959 -0.2952 -0.3344 -0.1816
  392H2O     OW 1174   0.903   0.331   2.635 -0.3339 -0.8287 -0.6761
  392H2O    HW1 1175   0.892   0.421   2.606  0.0232 -0.3549  0.6359
  392H2O    HW2 1176   0.997   0.320   2.646 -0.3325 -1.5333 -1.3824
  393H2O     OW 1177   2.224   2.658   1.643 -0.1778  0.1328 -0.2789
  393H2O    HW1 1178   2.204   2.648   1.550 -1.0877  0.8389 -0.1610
  393H2O    HW2 1179   2.320   2.653   1.648 -0.0932  0.6847 -1.3179
  394H2O     OW 1180   0.420   0.504   1.536 -0.0972  0.0683  1.0285
  394H2O    HW1 1181   0.359   0.538   1.601 -1.5513  1.5681 -1.1128
  394H2O    HW2 1182   0.478   0.577   1.516 -1.3385  0.4107 -1.3542
  395H2O     OW 1183   1.434   0.907   2.372  0.1356  0.1261  0.4221
  395H2O    HW1 1184   1.453   0.894   2.465 -0.4651 -1.9806  0.2520
  395H2O    HW2 1185   1.519   0.898   2.329 -0.4289 -4.0327  0.2167
  396H2O     OW 1186   1.629   0.078   0.623  0.1140  0.5600  0.0886
  396H2O    HW1 1187   1.610   0.164   0.662 -1.0108  0.1486  0.4654
  396H2O    HW2 1188   1.568   0.019   0.666  1.0670 -0.4736 -0.0026
  397H2O     OW 1189   1.602   0.873   0.275 -0.0082 -0.1228  1.1347
  397H2O    HW1 1190   1.602   0.944   0.340  1.0215 -0.3958  1.4453
  397H2O    HW2 1191   1.690   0.836   0.282  0.6325  0.8765 -1.5487
  398H2O     OW 1192   2.156   0.219   1.885  0.1108  0.1401  0.2661
  398H2O    HW1 1193   2.139   0.311   1.904 -0.4747 -0.0487  0.6405
  398H2O    HW2 1194   2.107   0.201   1.805  0.5579  0.2599 -0.0395
  399H2O     OW 1195   1.808   1.550   0.652 -0.0710  0.2090 -0.0306
  399H2O    HW1 1196   1.834   1.472   0.701  0.4313 -0.5633 -1.5313
  399H2O    HW2 1197   1.890   1.586   0.619 -0.3765  0.9248 -0.0118
  400H2O     OW 1198   1.743   1.488   1.612 -0.3894 -0.1805  0.6048
  400H2O    HW1 1199   1.822   1.530   1.647 -0.8416  0.4139  0.9122
  400H2O    HW2 1200   1.721   1.420   1.676 -1.0749  0.7447  1.3563
  401H2O     OW 1201   2.461   0.953   0.132  0.3700  0.6069 -0.6065
  401H2O    HW1 1202   2.521   0.998   0.192  0.1554 -3.7467  2.9642
  401H2O    HW2 1203   2.380   0.944   0.183 -1.4406  1.4793 -3.3920
  402H2O     OW 1204   0.975   2.689   1.743 -0.4664  0.3886  0.3841
  402H2O    HW1 1205   1.061   2.704   1.703 -0.0043 -2.4654  0.3569
  402H2O    HW2 1206   0.920   2.758   1.707  0.4951 -0.9101 -3.5141
  403H2O     OW 1207   0.732   2.003   1.132  0.1913 -0.2651 -0.1830
  403H2O    HW1 1208   0.654   2.054   1.155 -0.5553 -0.7609 -1.5814
  403H2O    HW2 1209   0.789   2.009   1.209 -1.2858 -0.0130  0.8822
  404H2O     OW 1210   2.064   0.904   1.741  0.0797  0.2093  0.0877
  404H2O    HW1 1211   1.970   0.892   1.725  0.0306  0.3550  0.2631
  404H2O    HW2 1212   2.080   0.859   1.823  0.3426 -0.5784 -0.4017
  405H2O     OW 1213   2.182   2.522   2.193 -0.0140 -0.4618  0.0732
  405H2O    HW1 1214   2.197   2.487   2.280  1.9126 -1.7115 -0.7574
  405H2O    HW2 1215   2.123   2.596   2.206 -1.4748 -2.0314  2.1799
  406H2O     OW 1216   0.800   2.177   0.602  0.0969  0.3371 -0.3295
  406H2O    HW1 1217   0.761   2.089   0.599 -0.3971  0.6117 -2.2891
  406H2O    HW2 1218   0.784   2.207   0.691  0.7556 -1.8012  0.5042
  407H2O     OW 1219   2.278   1.727   1.442 -0.6971  0.2285  0.5819
  407H2O    HW1 1220   2.213   1.765   1.501 -2.1899 -0.1440 -0.8166
  407H2O    HW2 1221   2.355   1.783   1.451 -1.0979  0.4877  2.4704
  408H2O     OW 1222   3.002   2.938   2.475  0.2828  0.4488 -0.8097
  408H2O    HW1 1223   3.076   2.887   2.508 -0.1641  0.9477  0.9281
  408H2O    HW2 1224   2.927   2.910   2.528 -1.0045 -0.8508 -3.3046
  409H2O     OW 1225   1.546   0.138   0.360  0.2286 -0.2490  0.2766
  409H2O    HW1 1226   1.498   0.055   0.355  2.5761 -1.5799 -0.4340
  409H2O    HW2 1227   1.603   0.127   0.436  3.2674 -0.7436 -2.0757
  410H2O     OW 1228   2.937   1.805   1.833 -0.3869  0.5457  0.6009
  410H2O    HW1 1229   2.888   1.805   1.915 -0.6425  0.8315  0.4498
  410H2O    HW2 1230   2.941   1.713   1.807 -0.2859  0.4550  0.9492
  411H2O     OW 1231   2.035   0.348   0.933  0.0441  0.1530  0.7021
  411H2O    HW1 1232   1.954   0.336   0.983 -0.3780  0.7916  0.1870
  411H2O    HW2 1233   2.074   0.427   0.969  1.0120 -0.7866  1.7066
  412H2O     OW 1234   1.427   2.229   2.514 -0.5412 -0.0604 -0.2960
  412H2O    HW1 1235   1.444   2.257   2.423  2.4585  1.3622  0.6872
  412H2O    HW2 1236   1.364   2.293   2.547  0.0735  0.7586 -0.6893
  413H2O     OW 1237   1.787   0.224   0.186  0.5865 -0.2764  0.1264
  413H2O    HW1 1238   1.818   0.166   0.117  2.7392  0.0502  0.8145
  413H2O    HW2 1239   1.708   0.182   0.220  0.0912 -0.9401 -1.8543
  414H2O     OW 1240   1.841   1.834   0.878  0.0103  0.3773 -0.2775
  414H2O    HW1 1241   1.847   1.927   0.855 -0.4646  0.1515 -1.3165
  414H2O    HW2 1242   1.789   1.795   0.807  1.8178 -1.0154 -0.8523
  415H2O     OW 1243   0.424   0.215   1.049 -0.3896 -0.4294  0.2292
  415H2O    HW1 1244   0.393   0.229   0.959  1.8908  0.1389 -0.4650
  415H2O    HW2 1245   0.421   0.303   1.088  0.3566 -0.3764  0.1624
  416H2O     OW 1246   1.345   1.506   2.619  0.9516  0.4276  0.4590
  416H2O    HW1 1247   1.401   1.431   2.597  0.0463  0.6615 -2.6398
  416H2O    HW2 1248   1.399   1.583   2.601  0.5146  0.6043 -0.0936
  417H2O     OW 1249   1.651   1.438   2.174  0.3285  0.0100 -0.5882
  417H2O    HW1 1250   1.584   1.394   2.123  0.1827 -1.8133  1.1673
  417H2O    HW2 1251   1.713   1.368   2.197 -0.3813  0.5833  2.9644
  418H2O     OW 1252   0.386   2.298   2.040 -0.3410 -0.3878 -0.3803
  418H2O    HW1 1253   0.428   2.217   2.069  0.1865 -0.5859 -1.6956
  418H2O    HW2 1254   0.293   2.283   2.054 -0.1503 -0.8021  0.4399
  419H2O     OW 1255   0.899   0.731   1.726  0.6636  0.0758 -1.1172
  419H2O    HW1 1256   0.931   0.730   1.636  0.5717 -2.9475 -1.1033
  419H2O    HW2 1257   0.974   0.704   1.779 -0.0060 -0.6139 -0.5134
  420H2O     OW 1258   2.354   2.702   2.655  0.1649 -0.0630 -0.5449
  420H2O    HW1 1259   2.338   2.790   2.621 -1.2910  0.9578  2.7901
  420H2O    HW2 1260   2.444   2.704   2.686  0.3694  0.0505 -1.1565
  421H2O     OW 1261   2.788   1.365   1.265  0.2183 -0.0294  0.6967
  421H2O    HW1 1262   2.696   1.369   1.236  1.0016  0.2546 -1.7820
  421H2O    HW2 1263   2.801   1.447   1.311 -0.9650 -0.3392  1.5986
  422H2O     OW 1264   1.666   2.547   1.861  0.0489  0.2396 -0.2399
  422H2O    HW1 1265   1.729   2.533   1.931 -0.3993  0.4808  0.2127
  422H2O    HW2 1266   1.710   2.605   1.799  0.7658 -0.6788 -0.5830
  423H2O     OW 1267   0.302   2.483   0.598 -0.5095 -0.4152 -0.4530
  423H2O    HW1 1268   0.293   2.433   0.517  0.4815 -2.0374  0.4375
  423H2O    HW2 1269   0.258   2.430   0.664 -2.4048  1.5103 -0.1695
  424H2O     OW 1270   1.835   0.030   0.940  0.0811 -0.2699  0.3396
  424H2O    HW1 1271   1.798   0.028   0.852 -0.2227  2.4548  0.4137
  424H2O    HW2 1272   1.927   0.054   0.926  0.3283 -1.0239  0.6714
  425H2O     OW 1273   1.944   1.624   2.953  0.2219 -0.5353  0.1758
  425H2O    HW1 1274   1.976   1.543   2.913  1.2352 -0.7897  1.5231
  425H2O    HW2 1275   1.854   1.632   2.920  1.0914 -0.7039 -2.2316
  426H2O     OW 1276   0.338   1.688   0.889 -0.0807  0.1178  0.4438
  426H2O    HW1 1277   0.422   1.697   0.842 -1.2303  0.5797 -1.5218
  426H2O    HW2 1278   0.357   1.719   0.978  1.8524  0.1873  0.0130
  427H2O     OW 1279   2.298   2.472   2.445  0.0238  0.0967  0.4092
  427H2O    HW1 1280   2.315   2.553   2.493  0.1912 -0.5001  1.3583
  427H2O    HW2 1281   2.216   2.439   2.481 -1.7163  1.5272 -2.2426
  428H2O     OW 1282   2.685   0.561   1.440  0.2636  0.4270  0.0190
  428H2O    HW1 1283   2.668   0.477   1.398  0.3647  1.0461 -1.2655
  428H2O    HW2 1284   2.774   0.583   1.414 -0.8537  2.3981 -2.1510
  429H2O     OW 1285   1.049   1.885   1.570  0.3423 -0.1648 -0.1712
  429H2O    HW1 1286   1.106   1.861   1.497  0.5913  0.1848 -0.0921
  429H2O    HW2 1287   1.078   1.973   1.595 -0.6222  0.2475 -0.5052
  430H2O     OW 1288   2.411   2.194   2.513 -0.5503 -0.1073  0.3682
  430H2O    HW1 1289   2.492   2.155   2.482 -0.4390 -0.0708  0.6126
  430H2O    HW2 1290   2.391   2.263   2.450 -0.6538 -0.4423  0.0313
  431H2O     OW 1291   0.801   0.687   2.059  0.1898  0.1380  0.6944
  431H2O    HW1 1292   0.862   0.639   2.114  0.4054 -1.6138 -1.0578
  431H2O    HW2 1293   0.715   0.655   2.084  0.1145  1.2087  1.8123
  432H2O     OW 1294   1.456   1.507   1.891 -0.8016  0.3366 -0.0082
  432H2O    HW1 1295   1.399   1.475   1.960 -1.7067 -0.2440 -1.0176
  432H2O    HW2 1296   1.486   1.428   1.846 -0.3668  0.7241 -0.4007
  433H2O     OW 1297   0.465   1.578   0.469  0.3460 -0.0150 -0.1633
  433H2O    HW1 1298   0.489   1.518   0.540  0.0486 -0.6978 -0.6376
  433H2O    HW2 1299   0.463   1.522   0.391  2.5547  1.0839 -1.0298
  434H2O     OW 1300   1.012   0.719   0.472  0.8684 -0.3149  0.9887
  434H2O    HW1 1301   0.917   0.709   0.470  0.9319 -0.9500  1.2398
  434H2O    HW2 1302   1.031   0.750   0.561  0.9326 -0.5367  1.0522
  435H2O     OW 1303   2.247   0.977   2.528 -0.3153  0.0664 -0.7768
  435H2O    HW1 1304   2.257   1.067   2.560  0.3643  0.1458 -1.2049
  435H2O    HW2 1305   2.322   0.930   2.564 -0.4734 -0.2451 -0.8524
  436H2O     OW 1306   2.340   0.584   2.400 -0.0687  0.3781  0.4225
  436H2O    HW1 1307   2.320   0.610   2.490  1.5044  1.7038  0.3874
  436H2O    HW2 1308   2.435   0.571   2.399 -0.0768  0.4430 -1.0798
  437H2O     OW 1309   1.856   2.105   1.213 -0.3457 -0.2263  0.0555
  437H2O    HW1 1310   1.943   2.065   1.216 -0.0057  0.4306 -0.9349
  437H2O    HW2 1311   1.795   2.032   1.225  0.3837 -0.4607  2.4374
  438H2O     OW 1312   0.780   1.666   1.471  0.0687  0.1890  0.4558
  438H2O    HW1 1313   0.761   1.747   1.517 -1.5416  0.3412 -0.4589
  438H2O    HW2 1314   0.875   1.665   1.462 -0.1181  3.3621 -2.0068
  439H2O     OW 1315   1.256   2.790   2.398  0.8722 -0.3412  0.0539
  439H2O    HW1 1316   1.326   2.725   2.399  1.0736 -0.1129  0.9648
  439H2O    HW2 1317   1.296   2.868   2.436  0.7676  0.4536 -1.4629
  440H2O     OW 1318   2.734   0.875   0.791  0.4594 -0.0830 -0.4597
  440H2O    HW1 1319   2.810   0.847   0.842  0.4768  0.9791  0.0988
  440H2O    HW2 1320   2.732   0.815   0.716  1.7895 -0.1809 -0.4171
  441H2O     OW 1321   2.030   1.527   0.879 -0.1180 -0.0496  0.1997
  441H2O    HW1 1322   1.951   1.473   0.875 -0.8095  0.8545  1.5680
  441H2O    HW2 1323   2.068   1.509   0.964 -1.0378  2.5726  1.1702
  442H2O     OW 1324   0.057   1.439   2.760  0.2130 -0.5653  0.5776
  442H2O    HW1 1325   0.110   1.360   2.749  1.9605  1.0559 -2.3920
  442H2O    HW2 1326   0.113   1.499   2.810  0.3399  0.3283 -0.6581
  443H2O     OW 1327   0.044   0.446   0.791  0.5051 -0.3150  0.3018
  443H2O    HW1 1328   0.041   0.366   0.843 -1.4442  1.4321  2.9005
  443H2O    HW2 1329   0.132   0.481   0.806 -0.3990  0.6941  3.1481
  444H2O     OW 1330   1.350   1.062   0.266 -0.2926  0.5026 -0.7919
  444H2O    HW1 1331   1.406   0.986   0.256 -0.2191  0.4421  0.0255
  444H2O    HW2 1332   1.410   1.136   0.272 -0.3262  0.5282 -0.7636
  445H2O     OW 1333   2.251   2.370   1.652  0.4997 -0.5975 -0.0332
  445H2O    HW1 1334   2.334   2.357   1.699 -0.1865 -1.8159  0.8532
  445H2O    HW2 1335   2.229   2.461   1.667  0.0397 -1.0947  2.4190
  446H2O     OW 1336   2.950   2.770   0.140 -0.1112 -0.0580 -0.2389
  446H2O    HW1 1337   2.903   2.787   0.058  1.2930  1.9915 -0.5967
  446H2O    HW2 1338   3.034   2.734   0.112  1.3387  2.9728  0.2676
  447H2O     OW 1339   0.359   2.285   2.699 -0.6036 -0.3053 -0.6164
  447H2O    HW1 1340   0.332   2.343   2.769 -1.8717  0.4904 -1.7566
  447H2O    HW2 1341   0.441   2.323   2.666 -0.8291  0.1819 -0.6053
  448H2O     OW 1342   1.415   2.880   2.803 -0.2763 -0.1216 -0.0005
  448H2O    HW1 1343   1.426   2.953   2.863  1.6264  0.5167 -1.1323
  448H2O    HW2 1344   1.342   2.830   2.839 -0.7083  1.6023  1.4970
  449H2O     OW 1345   1.375   2.117   1.746  0.0720 -0.8251 -0.3841
  449H2O    HW1 1346   1.405   2.061   1.817 -0.1494  0.3291  0.6083
  449H2O    HW2 1347   1.283   2.094   1.734  0.4426 -1.9206 -1.1445
  450H2O     OW 1348   0.870   1.864   0.943 -0.1552  0.2031 -0.0495
  450H2O    HW1 1349   0.812   1.898   1.011  1.5124  2.4235  0.2663
  450H2O    HW2 1350   0.955   1.855   0.987  0.4030 -0.3804 -1.2668
  451H2O     OW 1351   1.176   1.113   2.634  0.6012 -0.8402 -0.9591
  451H2O    HW1 1352   1.270   1.095   2.637  1.2176  2.1548 -1.5000
  451H2O    HW2 1353   1.168   1.185   2.570 -1.7652  0.6386  1.0000
  452H2O     OW 1354   1.905   1.232   2.066  0.2165 -0.2979 -0.1086
  452H2O    HW1 1355   1.877   1.163   2.125  1.1400 -1.0220 -0.5197
  452H2O    HW2 1356   1.965   1.285   2.119 -0.8755  0.4798  0.3581
  453H2O     OW 1357   1.574   0.713   1.005  0.1908  0.2817  0.0263
  453H2O    HW1 1358   1.583   0.684   1.096 -0.0446 -0.1427 -0.0884
  453H2O    HW2 1359   1.605   0.639   0.953 -1.0017  0.0113 -0.2841
  454H2O     OW 1360   1.398   0.364   2.009 -0.2007 -0.1582 -0.5415
  454H2O    HW1 1361   1.454   0.416   1.951  0.6114  0.5707  0.8867
  454H2O    HW2 1362   1.409   0.405   2.096 -3.4162  0.3530 -0.3768
  455H2O     OW 1363   0.681   2.142   0.123  0.3720 -0.3046  0.1847
  455H2O    HW1 1364   0.613   2.142   0.054 -0.7678 -0.5902  1.3104
  455H2O    HW2 1365   0.634   2.118   0.203  1.7418 -0.1313  1.0381
  456H2O     OW 1366   0.855   1.403   1.991  0.3268 -0.6146  0.3204
  456H2O    HW1 1367   0.821   1.423   1.903  0.5467 -0.2761  0.3121
  456H2O    HW2 1368   0.779   1.408   2.048  0.4645  0.6712  0.3849
  457H2O     OW 1369   0.595   2.200   2.574 -0.2937  0.4684  0.1402
  457H2O    HW1 1370   0.590   2.114   2.533 -1.7514  0.8481 -0.4886
  457H2O    HW2 1371   0.686   2.228   2.561  0.4456 -1.4475  1.3193
  458H2O     OW 1372   2.748   1.559   0.265 -0.2811 -0.1383 -0.0862
  458H2O    HW1 1373   2.676   1.617   0.239 -0.7129 -1.1170 -1.0376
  458H2O    HW2 1374   2.826   1.614   0.258 -0.6440  0.2140 -1.3916
  459H2O     OW 1375   0.971   1.499   1.072  0.2124 -0.2833 -0.2955
  459H2O    HW1 1376   0.906   1.506   1.002 -0.8246 -4.0646  0.3103
  459H2O    HW2 1377   1.053   1.527   1.031 -1.2181  1.6646 -1.8502
  460H2O     OW 1378   0.058   2.798   1.056 -0.6185 -0.0921 -0.0284
  460H2O    HW1 1379   0.060   2.713   1.011  0.4312  0.1223 -0.4012
  460H2O    HW2 1380   0.084   2.777   1.146  1.3781  0.0964 -0.5619
  461H2O     OW 1381   2.863   0.833   0.168  0.5110  0.5025 -0.5297
  461H2O    HW1 1382   2.901   0.747   0.184 -0.5253 -0.0460 -1.0221
  461H2O    HW2 1383   2.829   0.860   0.253 -1.3753 -0.6515 -0.9232
  462H2O     OW 1384   0.138   1.207   0.430 -0.1052  0.3841 -0.1166
  462H2O    HW1 1385   0.146   1.290   0.382  1.3462 -0.2392 -0.9289
  462H2O    HW2 1386   0.063   1.164   0.390 -1.0959  1.4772  0.5541
  463H2O     OW 1387   2.762   0.477   0.365 -0.2067 -0.0461  0.4529
  463H2O    HW1 1388   2.793   0.407   0.422 -0.3500 -0.5840 -0.1278
  463H2O    HW2 1389   2.721   0.431   0.291 -0.7319  0.6502  0.3126
  464H2O     OW 1390   2.976   0.768   2.030  0.5904  0.1264  0.1205
  464H2O    HW1 1391   3.004   0.689   2.076  1.3759  0.0995 -0.3933
  464H2O    HW2 1392   3.050   0.788   1.971  0.3481  1.1720  0.1803
  465H2O     OW 1393   1.506   1.308   0.645  0.0990 -0.4711 -0.3187
  465H2O    HW1 1394   1.512   1.263   0.730  1.3625 -0.9549 -0.6517
  465H2O    HW2 1395   1.591   1.352   0.636  0.1032 -0.7280 -1.5006
  466H2O     OW 1396   1.413   2.925   1.469 -0.0004 -0.4388 -0.3095
  466H2O    HW1 1397   1.353   2.890   1.403  1.1166 -1.0490 -0.9992
  466H2O    HW2 1398   1.373   2.902   1.553  0.1419 -2.3234 -0.7656
  467H2O     OW 1399   0.853   2.121   2.305 -0.2458  0.1548  0.1880
  467H2O    HW1 1400   0.837   2.034   2.343  0.3780 -0.6012 -1.2526
  467H2O    HW2 1401   0.922   2.106   2.241  1.0598  2.0454  1.1536
  468H2O     OW 1402   1.442   2.723   1.710 -0.0940 -0.2667 -0.2078
  468H2O    HW1 1403   1.532   2.748   1.692  0.5693 -2.1917  0.4465
  468H2O    HW2 1404   1.420   2.768   1.791  0.5919 -0.6154  0.1643
  469H2O     OW 1405   1.626   0.131   2.178 -0.0506  0.0981 -0.0992
  469H2O    HW1 1406   1.575   0.195   2.229 -0.2029  0.8214 -1.1674
  469H2O    HW2 1407   1.707   0.177   2.155  2.3254 -1.9803  4.0095
  470H2O     OW 1408   1.371   2.668   1.265 -0.1794 -0.8754 -0.3470
  470H2O    HW1 1409   1.329   2.754   1.266  0.1375 -0.7125 -0.8924
  470H2O    HW2 1410   1.305   2.608   1.300  0.0518 -0.1976  1.2293
  471H2O     OW 1411   0.563   1.369   1.945 -0.8213 -0.2866  0.3661
  471H2O    HW1 1412   0.600   1.375   1.857  1.6445  1.6190  1.5476
  471H2O    HW2 1413   0.477   1.410   1.938 -1.8379 -2.8200 -1.8657
  472H2O     OW 1414   0.190   1.059   0.677 -0.1406 -0.4271  0.5190
  472H2O    HW1 1415   0.215   1.100   0.759  1.4030 -0.9099  0.2934
  472H2O    HW2 1416   0.222   1.118   0.609  0.9183 -1.3376  0.2198
  473H2O     OW 1417   1.733   0.309   2.683 -0.3884  0.4423  0.1027
  473H2O    HW1 1418   1.702   0.393   2.649 -0.7182 -0.3604 -1.5857
  473H2O    HW2 1419   1.714   0.313   2.777 -0.0982  2.3850  0.0843
  474H2O     OW 1420   0.271   0.717   0.938  0.7161  0.3374  0.5654
  474H2O    HW1 1421   0.224   0.647   0.984  0.6591  0.3426  0.5141
  474H2O    HW2 1422   0.231   0.798   0.969 -1.5576  0.1999 -2.0373
  475H2O     OW 1423   2.052   1.387   2.600  0.5697 -0.1207  0.0454
  475H2O    HW1 1424   2.079   1.478   2.588  1.3483 -0.4022 -0.3710
  475H2O    HW2 1425   2.022   1.383   2.691  1.2813  0.3682  0.3075
  476H2O     OW 1426   1.071   1.185   1.146  0.3366 -0.2761  0.3530
  476H2O    HW1 1427   0.989   1.235   1.146  0.0797 -0.7043  1.0129
  476H2O    HW2 1428   1.064   1.127   1.070  0.3714  0.2481 -0.0556
  477H2O     OW 1429   1.010   1.206   1.655  0.1254  0.5786 -0.2965
  477H2O    HW1 1430   1.018   1.170   1.743  0.3046 -0.1556 -0.6085
  477H2O    HW2 1431   1.017   1.301   1.666 -0.5452  0.5201  0.5499
  478H2O     OW 1432   1.671   2.320   2.064 -0.4984  0.7411  0.1670
  478H2O    HW1 1433   1.721   2.399   2.086  0.3986  0.1443  0.3067
  478H2O    HW2 1434   1.706   2.294   1.979 -0.0158 -0.1275  0.6330
  479H2O     OW 1435   1.325   1.567   2.313  0.1011 -0.0926  0.3125
  479H2O    HW1 1436   1.305   1.658   2.332 -0.7429 -0.4651  1.2123
  479H2O    HW2 1437   1.405   1.570   2.261  1.2205  1.0623  2.0756
  480H2O     OW 1438   0.161   0.109   2.993 -0.3295 -0.1425 -0.2392
  480H2O    HW1 1439   0.123   0.071   2.913  0.3785  0.0616 -0.6741
  480H2O    HW2 1440   0.090   0.162   3.030 -0.4860  0.2202 -1.0411
  481H2O     OW 1441   2.206   0.341   2.802 -0.3092  0.2429 -0.7156
  481H2O    HW1 1442   2.186   0.393   2.879  1.1270 -0.3447  0.0480
  481H2O    HW2 1443   2.288   0.379   2.768  0.0182 -0.6523 -0.9222
  482H2O     OW 1444   1.246   1.835   1.374  0.3643  0.0742  0.2599
  482H2O    HW1 1445   1.242   1.777   1.298  2.3078 -1.3119  1.2295
  482H2O    HW2 1446   1.338   1.835   1.400 -0.0025  1.8595  1.6085
  483H2O     OW 1447   0.050   1.775   2.454 -0.8079  0.0654  0.3906
  483H2O    HW1 1448   0.086   1.863   2.465  1.3134 -0.6911 -0.5179
  483H2O    HW2 1449   0.092   1.723   2.523 -1.0821 -0.5275  0.1117
  484H2O     OW 1450   1.197   2.446   1.959 -0.1305  0.3611 -0.4660
  484H2O    HW1 1451   1.222   2.483   1.875 -0.0098 -0.4661 -0.7881
  484H2O    HW2 1452   1.127   2.503   1.991  0.2309  1.0161 -0.8522
  485H2O     OW 1453   2.378   1.893   2.390  0.0830  0.5135 -0.4113
  485H2O    HW1 1454   2.292   1.921   2.357  0.1043  0.5919 -0.4020
  485H2O    HW2 1455   2.401   1.960   2.454  0.1318  0.4689 -0.3825
  486H2O     OW 1456   2.031   1.984   2.954  0.0314 -0.4076  0.2020
  486H2O    HW1 1457   2.088   1.922   2.999 -0.1370 -0.9587 -0.3441
  486H2O    HW2 1458   2.090   2.053   2.923  0.3905 -0.9417 -0.2993
  487H2O     OW 1459   2.440   2.599   2.121  0.1537 -0.3697  0.1657
  487H2O    HW1 1460   2.346   2.598   2.137  0.3617  0.1748  1.4339
  487H2O    HW2 1461   2.469   2.510   2.144  0.0374 -0.3634  0.3374
  488H2O     OW 1462   1.383   1.202   0.893  0.3662  0.1590 -0.2010
  488H2O    HW1 1463   1.407   1.126   0.946 -0.4599 -0.6847 -1.0395
  488H2O    HW2 1464   1.356   1.268   0.957 -0.5944 -0.8462  0.4367
  489H2O     OW 1465   1.019   1.810   1.163 -0.5306 -0.1377  0.3090
  489H2O    HW1 1466   0.980   1.727   1.191  0.5380 -1.1036 -1.1050
  489H2O    HW2 1467   1.110   1.789   1.144 -0.0226  1.5640  0.9257
  490H2O     OW 1468   1.124   1.761   0.331  0.2925 -0.2553  0.1799
  490H2O    HW1 1469   1.185   1.790   0.399  0.7290  1.4288 -0.9306
  490H2O    HW2 1470   1.180   1.736   0.258 -0.2293 -1.1941  0.0975
  491H2O     OW 1471   1.158   1.526   2.812  0.5576  0.2392  0.7067
  491H2O    HW1 1472   1.127   1.442   2.847 -0.9369  0.0573 -1.0239
  491H2O    HW2 1473   1.221   1.502   2.745 -1.5379  0.4373 -1.3557
  492H2O     OW 1474   0.728   2.519   1.682  0.9466  0.5692  0.2721
  492H2O    HW1 1475   0.705   2.612   1.680  0.5738  0.4684 -0.3379
  492H2O    HW2 1476   0.818   2.517   1.713  0.5773  1.0640  1.4049
  493H2O     OW 1477   0.043   1.558   1.296  0.0411 -0.1748 -0.2039
  493H2O    HW1 1478   0.105   1.626   1.270 -0.6660  0.2275 -0.8381
  493H2O    HW2 1479   0.098   1.486   1.326  0.8069  0.3955 -0.2339
  494H2O     OW 1480   2.389   2.802   0.230  0.2301  0.3089  0.3076
  494H2O    HW1 1481   2.333   2.812   0.152 -1.2015  1.3987  1.4753
  494H2O    HW2 1482   2.408   2.892   0.257  3.1677 -0.0624 -0.5239
  495H2O     OW 1483   2.501   2.377   1.793  0.7059 -0.4817 -0.2217
  495H2O    HW1 1484   2.533   2.467   1.804  1.1029 -0.9932  2.8821
  495H2O    HW2 1485   2.476   2.350   1.882  1.7510 -3.8851 -0.9665
  496H2O     OW 1486   2.758   0.608   1.043 -0.6370 -0.3083  0.2944
  496H2O    HW1 1487   2.776   0.523   1.083 -1.4369  0.1318  1.5971
  496H2O    HW2 1488   2.756   0.591   0.949 -1.8854 -1.9233  0.6313
  497H2O     OW 1489   0.167   2.316   0.813  0.1288  0.7029  0.0790
  497H2O    HW1 1490   0.123   2.267   0.882  0.7876  0.2376  0.1701
  497H2O    HW2 1491   0.177   2.254   0.741 -0.2889  1.1019 -0.3266
  498H2O     OW 1492   0.293   2.045   1.333  0.0305 -0.4618  0.0689
  498H2O    HW1 1493   0.369   2.103   1.323 -0.0181 -0.7612 -2.0962
  498H2O    HW2 1494   0.299   2.013   1.423  2.2502 -0.1656  0.0284
  499H2O     OW 1495   2.117   1.774   0.852 -0.4999  0.2040 -0.2974
  499H2O    HW1 1496   2.107   1.679   0.859 -1.8740  0.3111 -0.6429
  499H2O    HW2 1497   2.027   1.807   0.856  0.0313  1.5266  0.4773
  500H2O     OW 1498   2.526   0.716   1.610 -0.0285  0.0782 -0.7446
  500H2O    HW1 1499   2.595   0.690   1.548 -0.2737 -2.8419  0.1754
  500H2O    HW2 1500   2.541   0.809   1.625  1.8031  0.1623 -2.9836
  501H2O     OW 1501   0.351   0.501   0.375 -0.0949  0.3501  0.0480
  501H2O    HW1 1502   0.425   0.444   0.353 -1.3516 -1.1432 -0.3460
  501H2O    HW2 1503   0.280   0.440   0.397 -1.0995  1.7759  0.7437
  502H2O     OW 1504   2.482   1.052   1.632 -0.1450  0.1329  0.4698
  502H2O    HW1 1505   2.567   1.014   1.609  0.3403  0.0751  2.4392
  502H2O    HW2 1506   2.461   1.108   1.557  0.9720 -0.9279 -0.6558
  503H2O     OW 1507   1.499   0.847   0.022 -0.1167  0.0205 -0.2214
  503H2O    HW1 1508   1.541   0.768  -0.012  0.0097  0.2656 -0.6290
  503H2O    HW2 1509   1.539   0.860   0.108 -2.2090 -1.9935  1.0538
  504H2O     OW 1510   1.748   2.019   1.653  0.5358 -0.4020 -0.0791
  504H2O    HW1 1511   1.725   1.932   1.622 -1.7250  0.3708 -0.5856
  504H2O    HW2 1512   1.687   2.077   1.608  0.9998  1.2850  1.4594
  505H2O     OW 1513   1.190   2.217   0.984 -0.4457  0.2323 -0.1653
  505H2O    HW1 1514   1.246   2.281   1.028  0.1527 -0.5279  0.1834
  505H2O    HW2 1515   1.116   2.205   1.044  0.3215 -0.7284  0.5809
  506H2O     OW 1516   1.628   0.893   1.580 -0.0434  0.5222  0.1808
  506H2O    HW1 1517   1.660   0.979   1.605 -1.0028  0.8691  0.2133
  506H2O    HW2 1518   1.564   0.910   1.511  0.5077 -0.2309 -0.5107
  507H2O     OW 1519   0.343   2.683   0.379  0.3502  0.3119  0.5175
  507H2O    HW1 1520   0.386   2.608   0.339 -1.3473 -1.9066  2.8838
  507H2O    HW2 1521   0.353   2.670   0.473  0.8130  3.4829  0.9268
  508H2O     OW 1522   0.970   1.054   2.870 -0.0822 -0.3033  0.0395
  508H2O    HW1 1523   1.039   1.054   2.804  0.4118  0.4225  0.5589
  508H2O    HW2 1524   0.951   0.961   2.886 -0.3605 -0.4735 -1.2873
  509H2O     OW 1525   1.980   0.081   2.182 -0.4254  0.6773 -0.6220
  509H2O    HW1 1526   1.938   0.160   2.148 -2.4873 -0.8713 -1.6746
  509H2O    HW2 1527   2.006   0.032   2.103 -1.4222 -0.9072  0.0380
  510H2O     OW 1528   2.426   0.160   1.965  0.2263 -0.0368  0.1894
  510H2O    HW1 1529   2.442   0.212   2.044 -1.0676  3.5960 -1.9393
  510H2O    HW2 1530   2.332   0.166   1.952  0.5455  0.0008 -2.0642
  511H2O     OW 1531   1.514   2.590   2.553 -0.2723 -0.1977 -0.5711
  511H2O    HW1 1532   1.445   2.629   2.607 -1.3282 -0.8832 -1.4239
  511H2O    HW2 1533   1.469   2.564   2.472  1.2793  0.6844 -1.7033
  512H2O     OW 1534   1.804   2.683   0.545 -0.0412  0.6863 -0.1527
  512H2O    HW1 1535   1.898   2.692   0.527 -0.3079 -0.7454 -2.2109
  512H2O    HW2 1536   1.793   2.723   0.632  2.1772  2.3644 -0.6374
  513H2O     OW 1537   1.444   0.516   2.436  0.3194 -0.1291 -0.7373
  513H2O    HW1 1538   1.509   0.536   2.503 -0.5673 -1.4140  0.5020
  513H2O    HW2 1539   1.480   0.554   2.355  2.0810  0.1133  0.1703
  514H2O     OW 1540   2.436   2.655   1.134  0.1981 -0.5797 -0.1176
  514H2O    HW1 1541   2.502   2.686   1.196  0.2830  1.1101 -1.0407
  514H2O    HW2 1542   2.408   2.570   1.168 -1.3751  1.3930  3.3895
  515H2O     OW 1543   1.582   2.475   1.600  0.0121  0.2156 -0.5365
  515H2O    HW1 1544   1.604   2.521   1.681 -1.2676 -1.6915  0.8986
  515H2O    HW2 1545   1.558   2.544   1.539  0.4854  1.6254  0.8669
  516H2O     OW 1546   2.333   1.050   1.183 -0.4468 -0.1072 -0.1899
  516H2O    HW1 1547   2.372   0.988   1.245  0.3424  0.0928 -0.4939
  516H2O    HW2 1548   2.238   1.034   1.191 -0.2585 -1.2639 -0.1652
  517H2O     OW 1549   2.857   2.296   0.008 -0.0909  0.1878  0.1284
  517H2O    HW1 1550   2.794   2.303   0.080 -0.4736 -1.0341 -0.0900
  517H2O    HW2 1551   2.941   2.319   0.048 -0.2104 -1.0342  1.1003
  518H2O     OW 1552   0.722   0.887   1.603 -0.3635 -0.3328 -0.5856
  518H2O    HW1 1553   0.782   0.835   1.658 -0.5261 -0.2274 -0.3094
  518H2O    HW2 1554   0.698   0.961   1.658 -1.6225 -0.9605 -0.3063
  519H2O     OW 1555   2.637   1.135   1.844  0.4862  0.3173 -0.9593
  519H2O    HW1 1556   2.581   1.108   1.771 -1.2019  0.8124  0.1433
  519H2O    HW2 1557   2.667   1.053   1.883 -1.7756  0.0369  0.2059
  520H2O     OW 1558   1.463   1.242   1.745  0.0567  0.2155  0.5530
  520H2O    HW1 1559   1.405   1.173   1.775 -0.4798 -0.1158 -1.2457
  520H2O    HW2 1560   1.442   1.253   1.653  0.7538  2.1726  0.6187
  521H2O     OW 1561   0.946   0.428   1.623 -0.4452 -0.6673 -0.0250
  521H2O    HW1 1562   0.970   0.360   1.687  1.2627 -0.1357 -0.1086
  521H2O    HW2 1563   0.910   0.499   1.676 -0.6362 -0.9339  0.2057
  522H2O     OW 1564   2.800   1.196   2.582  0.3853 -0.6833  0.2005
  522H2O    HW1 1565   2.739   1.169   2.651  0.1032 -0.0140  0.2147
  522H2O    HW2 1566   2.887   1.183   2.620  0.2023  0.8731  1.1142
  523H2O     OW 1567   1.315   1.397   2.077  0.1505 -0.2669 -0.5489
  523H2O    HW1 1568   1.291   1.449   2.154  0.1694 -0.2030 -0.5855
  523H2O    HW2 1569   1.244   1.335   2.066 -0.9086  1.1626 -1.7715
  524H2O     OW 1570   2.038   1.467   1.360  0.6385  0.0226  0.2017
  524H2O    HW1 1571   2.010   1.558   1.355  0.1893 -0.0261  1.8301
  524H2O    HW2 1572   2.079   1.459   1.446 -0.6432 -1.6833  0.6616
  525H2O     OW 1573   1.983   0.921   2.510 -0.0005  0.0863 -0.6910
  525H2O    HW1 1574   2.079   0.918   2.506 -0.0453 -1.6148 -0.1944
  525H2O    HW2 1575   1.964   0.997   2.566  1.0690 -1.3598  1.6239
  526H2O     OW 1576   0.560   1.359   0.599 -0.0337 -0.0791  0.4363
  526H2O    HW1 1577   0.545   1.313   0.682 -0.8819 -0.9529 -0.2058
  526H2O    HW2 1578   0.532   1.297   0.532  1.6882  0.2058 -0.5607
  527H2O     OW 1579   0.566   2.857   0.846 -0.1361 -0.4235  0.1447
  527H2O    HW1 1580   0.552   2.945   0.811  0.0947 -0.9025 -1.1812
  527H2O    HW2 1581   0.534   2.799   0.777  0.6265 -1.3899  0.6044
  528H2O     OW 1582   0.165   1.384   0.175 -0.0745  0.4528 -0.0244
  528H2O    HW1 1583   0.194   1.447   0.109 -2.2405  1.0725 -0.3636
  528H2O    HW2 1584   0.117   1.318   0.125  0.0724 -0.1703  0.6567
  529H2O     OW 1585   0.666   0.108   1.079 -0.9865 -0.5752  0.2375
  529H2O    HW1 1586   0.582   0.154   1.076  0.0223  1.1111 -2.0965
  529H2O    HW2 1587   0.681   0.080   0.988 -0.2859 -3.1231  1.1475
  530H2O     OW 1588   2.128   1.822   0.194 -0.1597 -0.0323  0.3170
  530H2O    HW1 1589   2.144   1.866   0.278 -1.2110  1.3739 -0.2147
  530H2O    HW2 1590   2.156   1.731   0.209  0.7914  0.5018  1.8152
  531H2O     OW 1591   0.514   2.171   1.156 -0.3338 -0.5141 -0.8464
  531H2O    HW1 1592   0.582   2.231   1.124  0.1737 -1.1698 -0.9869
  531H2O    HW2 1593   0.433   2.208   1.122 -0.2963  1.7011  1.4648
  532H2O     OW 1594   2.970   0.604   0.262 -0.2311 -0.0926 -0.1938
  532H2O    HW1 1595   2.890   0.555   0.278 -0.9186  0.3945 -2.2259
  532H2O    HW2 1596   3.034   0.538   0.236 -0.3309 -0.2930  0.0662
  533H2O     OW 1597   2.010   2.646   1.791 -0.2783  0.5297 -0.5866
  533H2O    HW1 1598   2.089   2.661   1.740 -0.0129 -1.0464 -0.6293
  533H2O    HW2 1599   2.011   2.553   1.811 -0.7581  0.9796  1.6472
  534H2O     OW 1600   1.624   0.613   1.259  0.4443  0.1157  0.2846
  534H2O    HW1 1601   1.548   0.560   1.287 -0.4122  0.1905 -1.8639
  534H2O    HW2 1602   1.699   0.570   1.299 -0.2162 -3.0406 -1.8180
  535H2O     OW 1603   2.397   1.246   1.977 -0.4324 -0.2685  0.0017
  535H2O    HW1 1604   2.406   1.311   1.908  0.8904 -0.7638 -0.2842
  535H2O    HW2 1605   2.419   1.163   1.936 -0.0792 -0.6249  0.8984
  536H2O     OW 1606   1.256   2.202   1.352  0.1474  0.2739 -0.2710
  536H2O    HW1 1607   1.284   2.110   1.353  0.0313  0.2454  0.8096
  536H2O    HW2 1608   1.312   2.244   1.287  1.8740 -0.0510  0.9920
  537H2O     OW 1609   2.649   2.131   2.380  0.2380 -0.2328 -0.0414
  537H2O    HW1 1610   2.727   2.077   2.388  0.6146  0.2219 -0.6377
  537H2O    HW2 1611   2.597   2.089   2.311  0.0976 -0.3683  0.1485
  538H2O     OW 1612   0.683   1.118   1.763  0.8181 -0.1131 -0.0826
  538H2O    HW1 1613   0.757   1.176   1.747  1.4389 -1.1868 -1.1219
  538H2O    HW2 1614   0.608   1.163   1.725  0.9924  0.8286  0.6940
  539H2O     OW 1615   2.771   2.454   0.646 -0.0113  0.2099 -0.4385
  539H2O    HW1 1616   2.764   2.374   0.698  3.5943 -0.0839 -0.3698
  539H2O    HW2 1617   2.706   2.444   0.576 -1.5655 -1.4876  1.2757
  540H2O     OW 1618   1.711   0.112   1.149 -0.1020 -0.2796  0.5569
  540H2O    HW1 1619   1.631   0.062   1.160 -0.0348 -1.1011 -2.6292
  540H2O    HW2 1620   1.754   0.073   1.072  2.8906  0.7176  1.6920
  541H2O     OW 1621   1.203   0.273   0.726  0.2268 -0.0088  0.2600
  541H2O    HW1 1622   1.223   0.213   0.655 -1.8926  0.5451 -0.8286
  541H2O    HW2 1623   1.195   0.359   0.683 -0.0282  0.4906  1.3100
  542H2O     OW 1624   2.059   0.850   2.865 -0.6521  0.4599  0.0840
  542H2O    HW1 1625   2.150   0.848   2.894  0.0844  1.1578 -2.1499
  542H2O    HW2 1626   2.009   0.813   2.938  1.4306 -0.0214  1.2556
  543H2O     OW 1627   0.793   2.320   2.097 -0.1357  0.2708  1.2348
  543H2O    HW1 1628   0.822   2.264   2.168  0.3575 -0.4888  0.4302
  543H2O    HW2 1629   0.863   2.385   2.086  0.0173  0.0835  1.1063
  544H2O     OW 1630   2.779   2.680   0.459  0.0067  0.1130  0.1510
  544H2O    HW1 1631   2.724   2.605   0.479 -0.4862  0.1353 -1.0720
  544H2O    HW2 1632   2.867   2.643   0.447 -0.4656 -0.4280 -1.6502
  545H2O     OW 1633   1.256   1.115   2.273  0.4623 -0.1575 -0.3726
  545H2O    HW1 1634   1.269   1.040   2.331  0.8712 -0.2356 -0.5669
  545H2O    HW2 1635   1.168   1.147   2.294  1.4387  1.0964  1.7574
  546H2O     OW 1636   2.486   1.088   0.917 -0.4066 -0.2766  0.2856
  546H2O    HW1 1637   2.409   1.040   0.946  0.1818 -2.0970 -1.1738
  546H2O    HW2 1638   2.560   1.038   0.952  0.1721  0.2097 -0.2419
  547H2O     OW 1639   0.999   1.951   2.636  0.2260 -0.1648 -0.1460
  547H2O    HW1 1640   1.067   2.005   2.678 -1.4245  0.9258  1.1116
  547H2O    HW2 1641   1.041   1.918   2.557  2.1566  0.7417  0.4859
  548H2O     OW 1642   0.067   2.192   1.264  0.3505 -0.1046 -0.3104
  548H2O    HW1 1643   0.111   2.115   1.302 -2.4372 -1.5668 -0.0513
  548H2O    HW2 1644   0.093   2.265   1.320 -2.9240 -2.0789  3.8185
  549H2O     OW 1645   2.569   2.384   0.479  0.0253  0.7561  0.0737
  549H2O    HW1 1646   2.528   2.297   0.481 -0.2501  0.8752 -0.6018
  549H2O    HW2 1647   2.496   2.445   0.484  0.3058  0.9367  2.0115
  550H2O     OW 1648   0.091   0.744   0.509 -0.2849 -0.0664  0.0230
  550H2O    HW1 1649   0.066   0.720   0.420  2.1734  3.0164 -1.4925
  550H2O    HW2 1650   0.033   0.817   0.531 -0.1955 -0.1741  0.6149
  551H2O     OW 1651   2.856   1.940   2.326  0.4031  0.4047  0.2932
  551H2O    HW1 1652   2.869   1.882   2.401  2.5928  2.4956  1.5599
  551H2O    HW2 1653   2.929   1.919   2.268 -0.6261 -0.3838 -0.7050
  552H2O     OW 1654   1.809   0.726   0.317  0.1950 -0.3864 -0.4727
  552H2O    HW1 1655   1.791   0.632   0.327  2.4362 -0.8595 -0.8363
  552H2O    HW2 1656   1.887   0.741   0.371  0.0909  1.1903 -0.7684
  553H2O     OW 1657   0.917   0.783   2.871 -0.2978  0.0905 -0.1650
  553H2O    HW1 1658   0.998   0.785   2.819 -0.7825 -1.0908 -0.9667
  553H2O    HW2 1659   0.918   0.697   2.913 -0.5274  0.5612  0.8006
  554H2O     OW 1660   2.039   1.993   1.957 -0.2287 -0.3789  1.0241
  554H2O    HW1 1661   2.052   1.942   2.037 -1.1175 -1.0287  0.7496
  554H2O    HW2 1662   2.125   2.032   1.939  1.0681 -3.8594 -0.2331
  555H2O     OW 1663   1.930   1.772   2.347  0.5650 -0.4802  0.4500
  555H2O    HW1 1664   1.889   1.692   2.378 -3.9909  0.6649 -2.5627
  555H2O    HW2 1665   1.875   1.842   2.381  0.2893  1.0882 -3.1257
  556H2O     OW 1666   0.697   0.586   0.096  0.0640 -0.0444  0.1752
  556H2O    HW1 1667   0.791   0.604   0.084  0.3997 -0.3221  2.3836
  556H2O    HW2 1668   0.668   0.655   0.156 -0.7821 -1.0041  0.8464
  557H2O     OW 1669   0.137   1.857   2.831  0.1770  0.1482 -0.3217
  557H2O    HW1 1670   0.207   1.905   2.787  0.2860  0.9621  0.7510
  557H2O    HW2 1671   0.090   1.923   2.881 -0.1482 -0.7368  0.5306
  558H2O     OW 1672   1.543   1.843   0.821  0.2229  0.4690  1.2056
  558H2O    HW1 1673   1.589   1.906   0.765 -1.3469  0.2965 -0.2899
  558H2O    HW2 1674   1.497   1.897   0.885  1.8960  0.6758  2.2278
  559H2O     OW 1675   0.955   0.686   0.993  0.2691  0.2017  0.2471
  559H2O    HW1 1676   1.012   0.763   0.992  0.6451 -0.0849 -0.2814
  559H2O    HW2 1677   0.933   0.674   1.085  0.7997  0.5107  0.4146
  560H2O     OW 1678   2.699   2.032   1.442 -0.0346 -0.2471 -0.3670
  560H2O    HW1 1679   2.650   2.095   1.494  0.3162  1.2742 -1.8610
  560H2O    HW2 1680   2.791   2.049   1.464  0.0486 -0.3868 -0.6040
  561H2O     OW 1681   0.604   1.200   1.049  0.1501 -0.4944 -0.2408
  561H2O    HW1 1682   0.679   1.217   1.107  1.0705  2.6701 -2.3957
  561H2O    HW2 1683   0.527   1.219   1.103  0.9856  1.1371  0.3697
  562H2O     OW 1684   0.264   2.459   2.872  0.9962  0.4751  0.2077
  562H2O    HW1 1685   0.227   2.519   2.807 -0.3980 -0.9212 -0.2965
  562H2O    HW2 1686   0.222   2.484   2.955 -0.4699 -0.5608 -0.2117
  563H2O     OW 1687   0.863   2.333   2.521  0.6814 -0.3846 -0.2276
  563H2O    HW1 1688   0.878   2.312   2.429  1.4513 -0.4963 -0.0719
  563H2O    HW2 1689   0.948   2.362   2.554  1.1724 -3.6462  1.3318
  564H2O     OW 1690   0.691   1.265   2.148 -0.1452  0.2210  0.0399
  564H2O    HW1 1691   0.635   1.308   2.083 -0.1206  1.1362  0.6252
  564H2O    HW2 1692   0.731   1.192   2.100 -0.4363  0.6571 -0.8732
  565H2O     OW 1693   2.285   2.779   2.948 -0.1755 -0.2253  0.0138
  565H2O    HW1 1694   2.207   2.775   2.893 -0.0378 -1.3216 -0.1053
  565H2O    HW2 1695   2.349   2.723   2.904  0.2639 -0.3100  0.7550
  566H2O     OW 1696   1.647   1.749   1.571 -0.1331 -0.4487  0.7751
  566H2O    HW1 1697   1.642   1.655   1.559  0.8851 -0.7191  2.4746
  566H2O    HW2 1698   1.634   1.763   1.664  1.1493  0.9742  0.7588
  567H2O     OW 1699   0.874   0.253   2.161  0.5450 -0.2275 -0.3877
  567H2O    HW1 1700   0.941   0.306   2.118  2.9451 -2.3157  0.7935
  567H2O    HW2 1701   0.818   0.223   2.089  0.8031  1.5707 -1.3568
  568H2O     OW 1702   2.412   2.971   0.602  0.4480  0.1783 -0.3529
  568H2O    HW1 1703   2.499   2.941   0.580  1.0851  1.9596 -0.2539
  568H2O    HW2 1704   2.424   3.061   0.632 -1.1823 -0.1539  1.3195
  569H2O     OW 1705   0.269   1.386   1.973  0.6252 -0.0764 -0.4882
  569H2O    HW1 1706   0.184   1.423   1.949  0.9016  0.2767 -0.9218
  569H2O    HW2 1707   0.248   1.308   2.025  0.0344 -0.9037 -1.9616
  570H2O     OW 1708   2.723   1.020   2.780 -0.1338  0.0719 -0.4232
  570H2O    HW1 1709   2.781   1.083   2.821 -1.4576  1.3391 -0.4738
  570H2O    HW2 1710   2.725   0.943   2.837 -0.8271  1.2751  1.1949
  571H2O     OW 1711   0.083   2.057   2.155  0.3013  0.5481  0.1019
  571H2O    HW1 1712   0.128   2.141   2.150  2.4168 -0.6037 -0.3828
  571H2O    HW2 1713   0.154   1.992   2.164 -1.2198 -1.2706 -0.8858
  572H2O     OW 1714   1.701   1.207   2.415  0.1827  0.1951 -0.2128
  572H2O    HW1 1715   1.676   1.120   2.385  1.1051  0.2696 -1.2330
  572H2O    HW2 1716   1.772   1.192   2.477  0.5678  0.2273 -0.6390
  573H2O     OW 1717   1.450   0.823   2.694 -0.5506 -0.0163 -0.1348
  573H2O    HW1 1718   1.414   0.744   2.734  1.0390 -0.1875  0.9735
  573H2O    HW2 1719   1.412   0.895   2.743 -2.9906 -0.0369 -1.9592
  574H2O     OW 1720   1.622   2.303   1.078 -0.3213 -0.7352 -0.1444
  574H2O    HW1 1721   1.634   2.242   1.151 -0.7096  0.0907  0.6144
  574H2O    HW2 1722   1.705   2.301   1.031  0.6810  0.3648  1.5664
  575H2O     OW 1723   1.930   2.672   1.097 -0.2358 -0.4063  0.1213
  575H2O    HW1 1724   1.912   2.603   1.161 -1.9058 -0.9817 -0.9772
  575H2O    HW2 1725   1.910   2.753   1.144  1.0051 -0.7133  1.1710
  576H2O     OW 1726   2.514   0.071   1.205 -0.1608  0.6736  0.1546
  576H2O    HW1 1727   2.558   0.081   1.120 -0.5861 -0.1786 -0.1696
  576H2O    HW2 1728   2.421   0.071   1.184 -0.2379 -0.7978  0.4821
  577H2O     OW 1729   0.306   0.094   2.580 -0.4958 -0.4525 -0.1810
  577H2O    HW1 1730   0.369   0.133   2.519 -1.1206  1.4558  0.4075
  577H2O    HW2 1731   0.261   0.028   2.527 -2.4885  2.6492 -2.4151
  578H2O     OW 1732   0.494   2.949   1.943 -0.1864  0.4498 -0.6485
  578H2O    HW1 1733   0.443   2.912   2.015 -1.0760  2.3248 -0.3455
  578H2O    HW2 1734   0.431   2.960   1.872 -0.0241  1.9449 -0.5537
  579H2O     OW 1735   2.917   2.811   1.740  0.2911 -0.0121  0.2581
  579H2O    HW1 1736   2.825   2.808   1.764  0.6881  0.3008  1.7934
  579H2O    HW2 1737   2.964   2.795   1.822  1.5807 -1.0976 -0.6921
  580H2O     OW 1738   2.011   0.130   2.732 -0.1581  0.5865  0.0194
  580H2O    HW1 1739   2.016   0.132   2.637  0.0821 -0.3663  0.0112
  580H2O    HW2 1740   2.061   0.206   2.761  0.9545  0.0738 -0.5724
  581H2O     OW 1741   2.553   2.939   2.536 -0.2003 -0.4773  0.2231
  581H2O    HW1 1742   2.509   3.018   2.566 -0.2134 -0.0023 -1.0476
  581H2O    HW2 1743   2.524   2.927   2.446 -0.2667 -1.9805  0.4348
  582H2O     OW 1744   0.142   0.645   2.210  0.4189 -0.4642 -0.3345
  582H2O    HW1 1745   0.152   0.736   2.237  2.6989 -0.5444 -0.8886
  582H2O    HW2 1746   0.189   0.595   2.277 -0.9806 -1.2581  0.0654
  583H2O     OW 1747   1.031   0.890   0.216  0.3894 -0.2184 -0.5283
  583H2O    HW1 1748   1.022   0.826   0.286 -0.0424  0.5102  0.0823
  583H2O    HW2 1749   1.104   0.946   0.243  0.3710 -0.0742 -0.7702
  584H2O     OW 1750   1.742   0.788   2.747 -0.3037 -0.3417 -0.2472
  584H2O    HW1 1751   1.809   0.855   2.732  1.0511 -2.3170 -2.8415
  584H2O    HW2 1752   1.662   0.827   2.713  0.4126  0.1391 -1.3938
  585H2O     OW 1753   1.284   1.853   0.564  0.2532  0.9700  0.2665
  585H2O    HW1 1754   1.297   1.779   0.623  1.2321  1.0801  0.1858
  585H2O    HW2 1755   1.211   1.902   0.603 -1.7294 -1.1631 -0.7975
  586H2O     OW 1756   1.101   1.299   2.933  0.3372  0.6522 -0.5944
  586H2O    HW1 1757   1.166   1.252   2.984 -1.4339  0.4852  1.5234
  586H2O    HW2 1758   1.031   1.235   2.918 -0.9133  1.8496  0.1246
  587H2O     OW 1759   1.963   1.015   2.239  0.0288 -0.3097 -0.1874
  587H2O    HW1 1760   2.055   1.039   2.251 -0.6103  1.6558  0.7229
  587H2O    HW2 1761   1.921   1.036   2.323 -1.2901 -1.0679 -0.6505
  588H2O     OW 1762   1.386   0.309   1.698 -0.7434 -0.1419 -0.1164
  588H2O    HW1 1763   1.454   0.245   1.719  0.5731  1.3009  0.0601
  588H2O    HW2 1764   1.304   0.266   1.719  0.1538 -1.7318  0.0952
  589H2O     OW 1765   2.692   1.530   1.678 -0.4576 -0.4486 -0.0933
  589H2O    HW1 1766   2.736   1.560   1.758  1.1168  0.3426 -1.2439
  589H2O    HW2 1767   2.716   1.438   1.670 -1.4062 -0.7707  0.8847
  590H2O     OW 1768   1.179   0.138   2.449 -0.1363 -0.9259  0.3295
  590H2O    HW1 1769   1.229   0.076   2.502 -2.2339 -0.9994  2.2413
  590H2O    HW2 1770   1.092   0.140   2.491 -0.9905  0.9740 -1.5552
  591H2O     OW 1771   2.864   0.005   1.315 -0.9442  0.0518 -0.2661
  591H2O    HW1 1772   2.863   0.070   1.386 -0.3789 -0.2130 -0.0083
  591H2O    HW2 1773   2.866   0.057   1.235 -1.3831  0.3546 -0.0796
  592H2O     OW 1774   1.747   2.667  -0.010 -0.2478 -0.1883 -0.0564
  592H2O    HW1 1775   1.771   2.694   0.079  0.1909 -1.4591  0.2111
  592H2O    HW2 1776   1.720   2.748  -0.053  2.4107  0.9151  0.3285
  593H2O     OW 1777   2.816   1.284   1.699  0.1941 -0.2158  0.0602
  593H2O    HW1 1778   2.750   1.241   1.754  1.0460  0.4270  1.5937
  593H2O    HW2 1779   2.885   1.219   1.689 -0.2132 -0.5254 -0.6852
  594H2O     OW 1780   0.560   0.377   0.211  0.2098  0.2580  0.1893
  594H2O    HW1 1781   0.550   0.308   0.146 -0.6656 -0.1579  0.7777
  594H2O    HW2 1782   0.586   0.454   0.160  1.7815 -0.6574 -0.3873
  595H2O     OW 1783   2.758   1.447   0.521 -0.3879  0.4576 -0.3884
  595H2O    HW1 1784   2.779   1.511   0.589 -1.6123  1.0191 -0.5404
  595H2O    HW2 1785   2.762   1.497   0.440  0.7421 -0.1393 -0.7028
  596H2O     OW 1786   0.229   2.600   0.112 -0.2825 -0.9012  0.2151
  596H2O    HW1 1787   0.317   2.588   0.076 -0.1358  1.4788 -0.2216
  596H2O    HW2 1788   0.243   2.619   0.205 -0.3818 -1.4713  0.3464
  597H2O     OW 1789   0.604   0.271   1.867  0.2794 -0.3279 -0.8054
  597H2O    HW1 1790   0.576   0.282   1.777 -1.0870 -1.6228 -0.5601
  597H2O    HW2 1791   0.687   0.317   1.874 -0.2455  0.8148 -2.3988
  598H2O     OW 1792   0.285   2.278   0.410  0.1120  0.4083 -0.0941
  598H2O    HW1 1793   0.258   2.187   0.394 -0.4882  0.5657  0.0253
  598H2O    HW2 1794   0.368   2.287   0.363  0.8356 -0.5987  0.9840
  599H2O     OW 1795   1.192   1.324   2.450  0.3633 -0.3099  0.5356
  599H2O    HW1 1796   1.259   1.278   2.399  1.3741 -1.4270  2.9144
  599H2O    HW2 1797   1.230   1.410   2.469  1.3169 -1.1356  2.3351
  600H2O     OW 1798   0.641   2.533   0.907 -0.0342  0.4065  0.1409
  600H2O    HW1 1799   0.642   2.613   0.960  0.3078  0.1266  0.5613
  600H2O    HW2 1800   0.588   2.555   0.831  0.8966  1.3347 -0.2325
  601H2O     OW 1801   2.680   3.011   0.017 -0.6732  0.3762 -0.1149
  601H2O    HW1 1802   2.610   3.039   0.077  1.1791  2.0548  1.2569
  601H2O    HW2 1803   2.724   2.941   0.063 -0.1719  0.6837 -0.1246
  602H2O     OW 1804   2.913   1.203   2.074  0.2274 -0.2073 -0.4045
  602H2O    HW1 1805   2.881   1.176   2.160  0.6745  0.8501  0.0938
  602H2O    HW2 1806   2.892   1.296   2.068  0.1704 -0.2790 -1.4575
  603H2O     OW 1807   0.548   2.041   0.342  0.0220  0.2159  0.5351
  603H2O    HW1 1808   0.525   2.019   0.433  1.6312  2.4382  1.4880
  603H2O    HW2 1809   0.624   1.987   0.323  0.1291  0.2847  0.7598
  604H2O     OW 1810   2.707   2.378   1.369  0.9566  0.3279  0.2652
  604H2O    HW1 1811   2.752   2.325   1.435  3.8704  0.2325 -1.7975
  604H2O    HW2 1812   2.778   2.418   1.318 -1.2573  3.1419 -0.6178
  605H2O     OW 1813   1.548   2.676   0.420 -0.3111 -0.0723 -0.4573
  605H2O    HW1 1814   1.491   2.724   0.480 -0.0978 -0.6472  0.2139
  605H2O    HW2 1815   1.633   2.673   0.465  0.4734  1.4775 -1.8025
  606H2O     OW 1816   0.404   0.433   1.220  0.3255  0.4515 -0.0886
  606H2O    HW1 1817   0.433   0.393   1.302 -3.2993 -0.7843  0.6204
  606H2O    HW2 1818   0.428   0.525   1.228  1.2721  0.0345  1.7499
  607H2O     OW 1819   0.892   1.038   2.522 -0.2795  0.3007 -0.1869
  607H2O    HW1 1820   0.798   1.050   2.506 -0.9674 -2.5073  1.7591
  607H2O    HW2 1821   0.905   1.070   2.611  0.3769 -0.5043  0.0006
  608H2O     OW 1822   1.649   1.099   1.281  0.4981 -0.6080 -0.3547
  608H2O    HW1 1823   1.679   1.176   1.329  0.9604 -1.0415  0.0594
  608H2O    HW2 1824   1.591   1.054   1.342  1.6969 -1.5672  0.0791
  609H2O     OW 1825   0.828   1.257   1.204 -0.2346 -0.1549  0.0799
  609H2O    HW1 1826   0.848   1.349   1.185 -1.6027  0.0527 -0.3521
  609H2O    HW2 1827   0.782   1.259   1.288 -2.3949 -0.2265 -1.1020
  610H2O     OW 1828   0.343   0.568   2.416  0.4037  0.1243 -0.6948
  610H2O    HW1 1829   0.390   0.609   2.489 -2.8153  0.9293  0.9593
  610H2O    HW2 1830   0.365   0.475   2.423 -0.3215  0.1203  1.6308
  611H2O     OW 1831   1.661   0.973   1.939  0.9543  0.8073  0.0297
  611H2O    HW1 1832   1.630   1.034   2.006  0.5331  0.2785  0.3154
  611H2O    HW2 1833   1.673   1.026   1.861  0.9833  1.3350  0.3967
  612H2O     OW 1834   1.519   0.959   0.945 -0.7716 -0.2000 -0.6317
  612H2O    HW1 1835   1.482   0.973   0.858  1.0736 -1.9855 -1.7256
  612H2O    HW2 1836   1.531   0.864   0.950  1.5876  0.1750  0.5735
  613H2O     OW 1837   2.503   1.118   0.647 -0.0300  1.0330  0.0879
  613H2O    HW1 1838   2.446   1.042   0.646 -1.2422  1.9424  1.0647
  613H2O    HW2 1839   2.520   1.135   0.740  2.5365  0.2137 -0.2250
  614H2O     OW 1840   2.759   0.756   2.498 -0.1195 -0.1065  0.2850
  614H2O    HW1 1841   2.787   0.754   2.407  0.0715  4.1112  0.2428
  614H2O    HW2 1842   2.830   0.801   2.544 -1.5711  0.4578  2.0089
  615H2O     OW 1843   0.894   3.032   0.611 -0.0632  0.0987  0.7435
  615H2O    HW1 1844   0.980   3.001   0.584 -0.9036 -0.2908 -1.4475
  615H2O    HW2 1845   0.834   2.997   0.545 -1.6745  1.8565  1.2960
  616H2O     OW 1846   2.696   2.357   0.201  0.0338 -0.3306 -0.1306
  616H2O    HW1 1847   2.669   2.445   0.175  1.1271 -0.2278 -0.9279
  616H2O    HW2 1848   2.649   2.340   0.282 -0.5637  0.7962 -0.2413
  617H2O     OW 1849   1.183   2.752   2.074 -0.2299  0.0172  0.6496
  617H2O    HW1 1850   1.275   2.752   2.047 -0.6336 -0.1086 -0.7339
  617H2O    HW2 1851   1.181   2.810   2.150  0.8675  0.6138  0.2343
  618H2O     OW 1852   0.647   1.450   2.577 -0.2187 -0.0133  0.0035
  618H2O    HW1 1853   0.662   1.537   2.541  0.3694 -0.1200 -0.0178
  618H2O    HW2 1854   0.610   1.400   2.504  2.8582 -0.7805 -1.0479
  619H2O     OW 1855   1.265   2.417   0.621  0.1539 -0.0389  0.0724
  619H2O    HW1 1856   1.348   2.454   0.652  0.0822 -1.3695  1.8452
  619H2O    HW2 1857   1.264   2.328   0.656 -0.5600 -1.0754 -2.5875
  620H2O     OW 1858   2.183   0.549   0.674 -0.1570 -0.7858  0.2665
  620H2O    HW1 1859   2.203   0.556   0.768  0.3721 -1.0673  0.1733
  620H2O    HW2 1860   2.117   0.480   0.669  0.8839 -1.7769  0.2741
  621H2O     OW 1861   1.075   2.574   1.044  0.4719  0.5298  0.0550
  621H2O    HW1 1862   1.042   2.486   1.032  2.3186 -0.1544  0.0059
  621H2O    HW2 1863   0.996   2.629   1.051 -0.7126 -1.4921  2.8661
  622H2O     OW 1864   1.500   1.761   2.579 -0.0792 -0.2109  0.0930
  622H2O    HW1 1865   1.479   1.770   2.485  1.7599  0.0029 -0.2848
  622H2O    HW2 1866   1.468   1.843   2.618  0.2665  0.2256 -0.5398
  623H2O     OW 1867   1.636   1.626   3.000  0.2547  0.3996 -0.5003
  623H2O    HW1 1868   1.691   1.697   3.033 -0.1751  0.3843  0.2420
  623H2O    HW2 1869   1.583   1.667   2.932 -1.3094  1.2112  1.2010
  624H2O     OW 1870   0.838   1.033   2.076  0.0188  0.0826 -0.3979
  624H2O    HW1 1871   0.893   0.981   2.134 -1.1843  0.8105  1.4013
  624H2O    HW2 1872   0.874   1.019   1.989  2.3950 -0.2604  0.6560
  625H2O     OW 1873   2.796   1.180   0.766 -0.3399 -0.3175  0.3312
  625H2O    HW1 1874   2.759   1.097   0.738 -1.3634  0.7155 -1.4032
  625H2O    HW2 1875   2.762   1.244   0.703  0.3280  1.4247  1.7302
  626H2O     OW 1876   1.920   1.729   1.382 -0.4529  0.2734 -0.5790
  626H2O    HW1 1877   1.847   1.702   1.438 -1.8217  2.1965 -1.4276
  626H2O    HW2 1878   1.987   1.760   1.444 -0.4139 -1.3767  0.1945
  627H2O     OW 1879   0.798   0.247   2.945 -0.0132 -0.1143  0.1062
  627H2O    HW1 1880   0.783   0.233   3.039 -4.3517  3.2753 -0.0962
  627H2O    HW2 1881   0.888   0.278   2.940  0.3100 -0.5211  3.1196
  628H2O     OW 1882   2.906   1.936   0.964 -0.0954  0.2714  0.8610
  628H2O    HW1 1883   2.885   1.956   1.055 -0.2085 -0.9114  1.0892
  628H2O    HW2 1884   2.948   1.850   0.967 -0.1769  0.1975 -0.2107
  629H2O     OW 1885   1.106   0.122   1.188 -0.1725  0.4267 -0.0732
  629H2O    HW1 1886   1.057   0.183   1.244  0.8189  2.7972 -1.7603
  629H2O    HW2 1887   1.052   0.112   1.110 -1.4902 -2.7753  1.2564
  630H2O     OW 1888   1.152   2.782   2.872  0.2735 -0.2571 -0.2201
  630H2O    HW1 1889   1.070   2.744   2.839  0.5906 -0.6939 -0.5097
  630H2O    HW2 1890   1.131   2.874   2.887 -0.0996 -0.2239 -0.8999
  631H2O     OW 1891   2.344   1.603   0.189  0.1617  0.3171  0.0447
  631H2O    HW1 1892   2.414   1.649   0.237 -0.7430  0.5131  1.1946
  631H2O    HW2 1893   2.299   1.553   0.256 -1.2417  0.7469 -0.5815
  632H2O     OW 1894   2.612   0.282   1.353 -0.1854 -0.3463  0.1583
  632H2O    HW1 1895   2.605   0.195   1.313 -0.1072 -0.8453  1.2557
  632H2O    HW2 1896   2.670   0.270   1.428 -1.2267  0.3903  1.0847
  633H2O     OW 1897   2.850   2.973   0.276  0.1654 -0.1693 -0.0020
  633H2O    HW1 1898   2.896   2.898   0.240  0.0045 -0.6781  0.8436
  633H2O    HW2 1899   2.918   3.029   0.313  0.2037 -0.3643  0.2214
  634H2O     OW 1900   2.711   1.767   1.953 -0.4368 -0.2646  0.0322
  634H2O    HW1 1901   2.628   1.738   1.914 -0.9928  0.5529  0.5982
  634H2O    HW2 1902   2.685   1.808   2.036  0.7186 -1.8325  1.1717
  635H2O     OW 1903   0.478   1.682   1.590  0.1523  0.2889  0.0254
  635H2O    HW1 1904   0.455   1.683   1.683  0.8373  0.5835  0.1872
  635H2O    HW2 1905   0.504   1.772   1.571 -1.5000  0.5846 -0.8208
  636H2O     OW 1906   0.358   1.781   2.354  0.1942 -0.2236 -0.0614
  636H2O    HW1 1907   0.347   1.876   2.357 -0.2393 -0.2759 -0.0818
  636H2O    HW2 1908   0.331   1.750   2.440 -2.6835 -0.6636 -1.1447
  637H2O     OW 1909   0.283   2.441   2.347 -0.8743  0.0779 -0.4815
  637H2O    HW1 1910   0.246   2.380   2.412 -2.7810  0.0282 -1.6163
  637H2O    HW2 1911   0.262   2.402   2.263 -1.6796  2.0668 -1.1990
  638H2O     OW 1912   2.783   2.782   2.911 -0.1953  0.2345 -0.2184
  638H2O    HW1 1913   2.727   2.830   2.850 -0.2968 -1.0901 -1.1771
  638H2O    HW2 1914   2.850   2.742   2.855  0.5235  0.1735  0.6983
  639H2O     OW 1915   1.522   2.103   0.123 -0.0580  0.9421  0.2092
  639H2O    HW1 1916   1.598   2.143   0.166  0.4843 -0.2639  0.3850
  639H2O    HW2 1917   1.459   2.090   0.193  0.1419  0.6063  0.3294
  640H2O     OW 1918   1.023   2.393   1.685 -0.3142 -0.5174 -0.1413
  640H2O    HW1 1919   1.027   2.370   1.778 -0.8391  1.1674  0.2887
  640H2O    HW2 1920   1.096   2.453   1.671 -1.0769  0.3136 -0.5314
  641H2O     OW 1921   2.390   2.430   3.031 -0.0254  0.3307 -0.6124
  641H2O    HW1 1922   2.457   2.473   2.978 -1.7268  1.3804 -1.8890
  641H2O    HW2 1923   2.310   2.439   2.981 -0.6884 -3.0094 -0.1908
  642H2O     OW 1924   1.979   1.228   1.810  0.3654  0.9664  0.1470
  642H2O    HW1 1925   2.066   1.189   1.809  0.2625  0.7331  0.3357
  642H2O    HW2 1926   1.959   1.239   1.903 -0.7834 -1.1424  0.1378
  643H2O     OW 1927   0.974   0.008   2.617 -0.3217 -0.0022 -0.4119
  643H2O    HW1 1928   1.024   0.018   2.698  0.7596 -0.3546 -1.0381
  643H2O    HW2 1929   0.883   0.024   2.643 -0.1652 -1.6624  1.1835
  644H2O     OW 1930   1.162   1.665   0.866 -0.3053  0.7208 -0.1770
  644H2O    HW1 1931   1.209   1.637   0.788  0.2812  1.7431 -0.1911
  644H2O    HW2 1932   1.078   1.698   0.832  0.5997  2.6626 -0.5225
  645H2O     OW 1933   0.224   0.761   1.891 -0.4325  0.5182 -0.0923
  645H2O    HW1 1934   0.306   0.792   1.852 -0.0891 -0.4900 -0.1492
  645H2O    HW2 1935   0.251   0.694   1.954 -1.2082  0.2376 -0.0615
  646H2O     OW 1936   0.336   1.981   2.690  0.1121  0.0166  0.2414
  646H2O    HW1 1937   0.406   1.917   2.704 -0.4589 -0.2598  1.7563
  646H2O    HW2 1938   0.379   2.066   2.697  0.6420 -0.1786 -0.5922
  647H2O     OW 1939   0.620   1.663   2.351 -0.5235 -0.3344  0.1876
  647H2O    HW1 1940   0.644   1.636   2.263  3.2142  3.9407 -0.0708
  647H2O    HW2 1941   0.526   1.681   2.346 -0.4293 -0.7196 -2.7324
  648H2O     OW 1942   2.919   0.243   0.051 -0.9831  0.3686 -0.6266
  648H2O    HW1 1943   2.829   0.228   0.079 -1.4639  3.2809 -0.6780
  648H2O    HW2 1944   2.927   0.338   0.045  2.0544  0.0869 -0.7514
  649H2O     OW 1945   1.792   1.295   1.421  0.6383 -0.1504 -0.5125
  649H2O    HW1 1946   1.757   1.346   1.494  0.8473 -1.8824  0.8003
  649H2O    HW2 1947   1.872   1.342   1.396  0.9872 -0.0027  0.8848
  650H2O     OW 1948   1.746   1.124   1.661 -0.2058 -0.1378 -0.0460
  650H2O    HW1 1949   1.769   1.171   1.580 -1.2496  0.1013 -0.2074
  650H2O    HW2 1950   1.812   1.152   1.724 -1.9304  3.0340  0.3793
  651H2O     OW 1951   1.767   1.008  -0.005 -0.5643  0.1682  0.2020
  651H2O    HW1 1952   1.831   1.036   0.060 -0.7171 -0.2006  0.5133
  651H2O    HW2 1953   1.785   0.915  -0.019  0.0949  0.4794 -1.0106
  652H2O     OW 1954   0.879   1.397   0.827  0.4221 -0.2724  0.0747
  652H2O    HW1 1955   0.964   1.396   0.782  0.3734  1.6281 -0.0635
  652H2O    HW2 1956   0.867   1.307   0.857  1.3488 -1.1025 -2.0365
  653H2O     OW 1957   0.966   0.728   1.479 -0.6566 -0.4064 -0.0586
  653H2O    HW1 1958   1.057   0.744   1.456 -0.6610  0.2194  0.3656
  653H2O    HW2 1959   0.920   0.727   1.395 -0.7740  2.5622 -0.0359
  654H2O     OW 1960   2.275   2.113   2.920  0.0703  0.0853 -0.1946
  654H2O    HW1 1961   2.290   2.081   2.831  3.3599  0.1169  0.3686
  654H2O    HW2 1962   2.330   2.191   2.927 -0.0217 -0.0517  1.9786
  655H2O     OW 1963   0.036   1.038   2.688  0.8190  0.1538  0.2706
  655H2O    HW1 1964  -0.013   1.000   2.760  0.7973 -0.9864 -0.3533
  655H2O    HW2 1965   0.103   0.973   2.666 -0.4656 -0.3909 -2.0820
  656H2O     OW 1966   0.113   1.184   3.000  0.2983 -0.1890 -0.0908
  656H2O    HW1 1967   0.028   1.177   2.956  0.1354  1.4972 -0.0371
  656H2O    HW2 1968   0.176   1.198   2.928  0.3437  0.0960  0.0054
  657H2O     OW 1969   1.072   0.055   2.869 -0.7572 -0.1066 -0.9015
  657H2O    HW1 1970   1.003   0.041   2.933  1.6668 -2.6240  1.1560
  657H2O    HW2 1971   1.113   0.137   2.895 -0.3315 -0.6882  0.2390
  658H2O     OW 1972   0.012   3.010   2.748 -0.0768  0.0219  0.1359
  658H2O    HW1 1973   0.055   2.950   2.687  1.3888  1.0216  0.1892
  658H2O    HW2 1974  -0.055   3.054   2.695  0.3176 -0.0690 -0.4343
  659H2O     OW 1975   2.936   2.376   1.546 -0.3805 -0.4766 -0.0159
  659H2O    HW1 1976   2.848   2.355   1.577 -1.0687 -0.8796 -2.2078
  659H2O    HW2 1977   2.932   2.468   1.520 -0.1999 -0.5457 -0.2901
  660H2O     OW 1978   2.980   0.344   2.093  0.1485 -0.3508  0.2705
  660H2O    HW1 1979   2.996   0.301   2.177 -0.3848 -0.9726  0.0613
  660H2O    HW2 1980   2.919   0.415   2.114  2.0263  1.0748  0.8176
  661H2O     OW 1981   2.129   1.124   2.895 -0.5842  0.4263  0.2259
  661H2O    HW1 1982   2.105   1.052   2.837 -1.4077  1.5296 -0.7876
  661H2O    HW2 1983   2.225   1.128   2.890 -0.4915 -0.9976  0.7692
  662H2O     OW 1984   0.589   2.870   2.933  0.6290  0.5151  0.0880
  662H2O    HW1 1985   0.675   2.832   2.953 -0.2862 -0.6106  1.9459
  662H2O    HW2 1986   0.593   2.892   2.840  0.3647 -6.2422 -1.5528
  663H2O     OW 1987   1.251   2.902   1.243 -0.2539  0.5401 -0.1769
  663H2O    HW1 1988   1.218   2.992   1.251 -1.0119  0.0646  2.0479
  663H2O    HW2 1989   1.194   2.860   1.179 -1.6120  0.8183  0.8682
  664H2O     OW 1990   0.618   0.725   2.844  0.2766  0.4482 -0.0125
  664H2O    HW1 1991   0.704   0.762   2.862  0.3054  0.6474 -0.5435
  664H2O    HW2 1992   0.556   0.785   2.885  0.4998 -0.8497  2.1991
  665H2O     OW 1993   1.289   0.245   2.892  0.6761  0.1790 -0.2638
  665H2O    HW1 1994   1.351   0.183   2.855 -0.1081  1.6198 -4.0005
  665H2O    HW2 1995   1.343   0.312   2.933  1.5839  0.2288 -1.5274
  666H2O     OW 1996   0.744   1.789   2.683  0.5779 -0.3999 -0.3435
  666H2O    HW1 1997   0.786   1.875   2.685 -1.1864  0.4852 -1.4700
  666H2O    HW2 1998   0.817   1.727   2.679  1.8023  1.1247 -1.6754
  667H2O     OW 1999   0.046   2.473   1.762 -0.2880 -0.3636 -0.8259
  667H2O    HW1 2000   0.021   2.429   1.681  0.6253  0.6316 -1.6403
  667H2O    HW2 2001   0.126   2.427   1.789  0.4207  0.5235 -1.4431
  668H2O     OW 2002   2.873   2.002   1.219 -0.5517 -0.4263 -0.2394
  668H2O    HW1 2003   2.813   1.986   1.292  0.0317  1.0965  0.5617
  668H2O    HW2 2004   2.938   2.063   1.254 -1.3267  1.7373 -2.5997
  669H2O     OW 2005   0.697   2.335   1.083 -0.9742 -0.4474  0.0170
  669H2O    HW1 2006   0.661   2.405   1.028 -0.2598 -0.7048 -0.7774
  669H2O    HW2 2007   0.791   2.338   1.066 -0.7978 -0.7842  0.9345
  670H2O     OW 2008   1.609   0.524   1.781  0.1530 -0.5870 -0.1628
  670H2O    HW1 2009   1.518   0.518   1.751  0.6236  0.6383 -1.8425
  670H2O    HW2 2010   1.607   0.589   1.851 -0.2736 -0.5696 -0.1895
  671H2O     OW 2011   0.663   1.448   1.365  0.0427  0.2667  0.2357
  671H2O    HW1 2012   0.570   1.472   1.358  0.4228  1.8064  0.3851
  671H2O    HW2 2013   0.704   1.526   1.402  1.2313 -0.7976  1.1090
  672H2O     OW 2014   0.440  -0.012   1.651 -0.2953 -0.7738  0.3121
  672H2O    HW1 2015   0.473   0.061   1.598 -1.4412  1.3264  2.5583
  672H2O    HW2 2016   0.360  -0.040   1.606 -1.1928  0.9279  0.8459
  673H2O     OW 2017   0.896   2.534   1.951 -0.3652 -0.1845 -0.1719
  673H2O    HW1 2018   0.952   2.577   1.887  0.0134  1.1379  1.0704
  673H2O    HW2 2019   0.851   2.605   1.996 -0.4302 -1.1198  1.2420
  674H2O     OW 2020   2.424   0.837   2.267  0.0971  0.0026 -0.5489
  674H2O    HW1 2021   2.393   0.780   2.196 -0.8685  1.6956 -1.4732
  674H2O    HW2 2022   2.378   0.805   2.345  1.1663 -1.8615 -0.6846
  675H2O     OW 2023   2.128   1.500   1.933  0.0379  0.2255  0.1539
  675H2O    HW1 2024   2.168   1.586   1.943  0.4357  0.1938 -1.1515
  675H2O    HW2 2025   2.187   1.441   1.979 -0.1647  0.6282  0.9375
  676H2O     OW 2026   1.094   2.194   2.089 -1.0189  0.2807 -0.8624
  676H2O    HW1 2027   1.135   2.259   2.032  1.7600 -0.1542  0.6410
  676H2O    HW2 2028   1.167   2.146   2.128 -2.9705 -1.4035  0.7601
  677H2O     OW 2029   0.664   0.420   2.487  0.2205 -0.0597 -0.2798
  677H2O    HW1 2030   0.720   0.496   2.498 -0.7049  0.4622  0.8479
  677H2O    HW2 2031   0.722   0.344   2.499  0.9447  0.4614 -0.4945
  678H2O     OW 2032   0.976   0.655   0.107 -0.3327 -0.1075  0.4395
  678H2O    HW1 2033   1.067   0.632   0.086 -0.2159 -0.1488  0.9861
  678H2O    HW2 2034   0.978   0.749   0.126 -0.5376  0.0422 -0.2870
  679H2O     OW 2035   0.407   2.888   2.219  0.7404  0.1115  0.2020
  679H2O    HW1 2036   0.482   2.921   2.269  0.7066  0.2574  0.1532
  679H2O    HW2 2037   0.335   2.946   2.241  0.5577 -0.2321  0.5107
  680H2O     OW 2038   0.203   0.647   1.637  0.7035  0.1557  0.4046
  680H2O    HW1 2039   0.199   0.711   1.566  0.7002  0.3752  0.6054
  680H2O    HW2 2040   0.234   0.696   1.713  1.2621 -0.2048  0.4110
  681H2O     OW 2041   0.859   2.892   1.528 -0.5215 -0.7984 -0.2916
  681H2O    HW1 2042   0.848   2.906   1.434 -0.4227  1.2175 -0.0220
  681H2O    HW2 2043   0.807   2.962   1.568  1.0866 -0.4004  1.1148
  682H2O     OW 2044   0.794   0.102   1.675 -0.3916 -0.2628  0.2607
  682H2O    HW1 2045   0.704   0.134   1.686 -0.6114 -0.9668  0.5498
  682H2O    HW2 2046   0.818   0.069   1.762 -0.3668 -1.3821 -0.1684
  683H2O     OW 2047   1.163   0.800   0.732  0.1471  0.2768 -0.2987
  683H2O    HW1 2048   1.240   0.856   0.724  0.5570 -0.2345  0.0405
  683H2O    HW2 2049   1.089   0.857   0.711  0.6079  0.8023 -0.4880
  684H2O     OW 2050   2.297   1.531   0.446 -0.8770 -0.4504 -0.4376
  684H2O    HW1 2051   2.361   1.555   0.513 -2.5306  1.0451  0.5925
  684H2O    HW2 2052   2.326   1.445   0.415  1.4665  0.0918  0.2419
  685H2O     OW 2053   1.263   1.108   1.905 -0.1675 -0.2763  0.5964
  685H2O    HW1 2054   1.207   1.160   1.963 -0.0921 -0.6848  1.0413
  685H2O    HW2 2055   1.202   1.061   1.848 -0.3225 -1.4460  1.7010
  686H2O     OW 2056   2.828   1.166   0.436  1.2869  0.1083  0.2575
  686H2O    HW1 2057   2.802   1.251   0.473 -1.5027 -0.2339 -0.9618
  686H2O    HW2 2058   2.855   1.187   0.346  1.7037 -0.1036  0.3350
  687H2O     OW 2059   0.104   1.731   0.763  0.2332 -0.2241  0.0416
  687H2O    HW1 2060   0.057   1.679   0.828 -0.9709  1.7216  0.7324
  687H2O    HW2 2061   0.189   1.748   0.803  0.7293 -1.9351 -0.3101
  688H2O     OW 2062   0.889   1.807   2.359  0.3449  0.0847  0.1842
  688H2O    HW1 2063   0.971   1.772   2.393 -0.7310 -1.6462  1.0039
  688H2O    HW2 2064   0.840   1.730   2.331 -1.4031  1.0353  0.6289
  689H2O     OW 2065   2.972   0.674   1.397  0.6756 -0.7378 -0.4117
  689H2O    HW1 2066   2.959   0.724   1.317  2.1542 -0.9479 -0.7814
  689H2O    HW2 2067   3.010   0.737   1.459  1.1849 -1.0350 -0.4245
  690H2O     OW 2068   2.176   0.663   2.683 -0.0345  0.5655  0.7752
  690H2O    HW1 2069   2.127   0.744   2.700 -0.2955  0.6140 -0.2314
  690H2O    HW2 2070   2.109   0.596   2.673  0.1109  0.5932 -0.3939
  691H2O     OW 2071   1.028   2.995   1.844  0.0070  0.3698  0.1355
  691H2O    HW1 2072   1.089   2.998   1.919  0.7832 -0.5326 -0.4649
  691H2O    HW2 2073   0.953   2.945   1.876 -0.2607  1.1696  0.7597
  692H2O     OW 2074   1.553   2.206   1.528 -0.2754  0.1397  0.3132
  692H2O    HW1 2075   1.566   2.300   1.542  0.3626 -0.0222  0.8117
  692H2O    HW2 2076   1.487   2.181   1.592  0.2017  0.0695  0.7757
  693H2O     OW 2077   1.169   0.299   0.232  0.2187  0.3523 -0.2756
  693H2O    HW1 2078   1.199   0.229   0.290  0.5134  0.6467 -0.0728
  693H2O    HW2 2079   1.167   0.377   0.288 -1.7523  0.1575 -0.0716
  694H2O     OW 2080   2.898   2.649   1.523 -0.6708 -0.4305 -0.5226
  694H2O    HW1 2081   2.917   2.696   1.605  2.1195 -1.0672 -0.7926
  694H2O    HW2 2082   2.932   2.705   1.454 -1.6738 -0.6009 -1.1625
  695H2O     OW 2083   2.756   1.740   2.937  0.6896 -0.3478  0.5761
  695H2O    HW1 2084   2.730   1.821   2.980 -0.3992 -0.4703  0.1532
  695H2O    HW2 2085   2.673   1.697   2.914  1.2657 -0.2576 -1.6984
  696H2O     OW 2086   2.530   0.328   2.167 -0.6389  0.4322 -0.0604
  696H2O    HW1 2087   2.490   0.405   2.128  0.7250  1.7028  1.0690
  696H2O    HW2 2088   2.623   0.350   2.177 -0.1334 -1.5516 -0.2889
  697H2O     OW 2089   1.829   2.155   1.875 -0.5505  0.2099 -0.3214
  697H2O    HW1 2090   1.805   2.124   1.787 -1.1685 -0.6000  0.1180
  697H2O    HW2 2091   1.898   2.095   1.904 -0.4181  0.4119 -0.2176
  698H2O     OW 2092   2.501   0.224   0.594 -0.2092 -0.2610  0.1077
  698H2O    HW1 2093   2.525   0.317   0.594 -2.4489  0.3227 -0.3381
  698H2O    HW2 2094   2.552   0.186   0.523 -0.2001  0.8709 -0.4978
  699H2O     OW 2095   1.252   0.587   1.079  0.2090 -0.0470  0.5099
  699H2O    HW1 2096   1.278   0.499   1.106  1.5992  0.8464  2.0236
  699H2O    HW2 2097   1.167   0.600   1.120 -0.3771 -1.0080 -0.3882
  700H2O     OW 2098   1.988   1.381   2.893 -0.2391  0.1465 -0.2440
  700H2O    HW1 2099   2.039   1.301   2.909 -0.3878 -0.0762 -0.9088
  700H2O    HW2 2100   1.908   1.370   2.944  0.6137  0.7256  1.2305
  701H2O     OW 2101   1.646   2.785   1.336 -0.0826  0.0759  0.2419
  701H2O    HW1 2102   1.592   2.841   1.391 -0.9410 -0.7083  0.1947
  701H2O    HW2 2103   1.583   2.736   1.282  0.7124  0.0491 -0.6552
  702H2O     OW 2104   2.826   0.823   2.245  0.3665  0.0863  0.4777
  702H2O    HW1 2105   2.831   0.917   2.264 -1.0579  0.5185 -1.2756
  702H2O    HW2 2106   2.886   0.810   2.171  1.1341 -0.5071  1.2109
  703H2O     OW 2107   1.779   2.746   1.641  0.0441  0.2282 -0.4259
  703H2O    HW1 2108   1.863   2.723   1.681 -0.0974  0.1883 -0.1516
  703H2O    HW2 2109   1.791   2.835   1.610 -0.2939  0.7493  0.9308
  704H2O     OW 2110   0.800   1.806   1.918 -0.2199 -0.4555 -0.2220
  704H2O    HW1 2111   0.859   1.739   1.883  0.1257  0.2493 -0.9721
  704H2O    HW2 2112   0.855   1.883   1.930 -1.3547  0.6897 -2.4200
  705H2O     OW 2113   2.320   0.276   2.361  0.2251  0.0764  0.0862
  705H2O    HW1 2114   2.386   0.301   2.296  1.8642  0.0203  1.7301
  705H2O    HW2 2115   2.355   0.307   2.444 -2.5295  1.3345  0.7519
  706H2O     OW 2116   0.845   1.276   2.706  0.2665 -0.2792  0.3958
  706H2O    HW1 2117   0.929   1.320   2.698  0.0335  0.1176  0.1261
  706H2O    HW2 2118   0.786   1.327   2.651  0.1387 -1.2881 -0.4061
  707H2O     OW 2119   1.064   0.881   1.149 -0.0936  0.1785 -0.1028
  707H2O    HW1 2120   1.158   0.873   1.164  0.3978  2.7730 -1.7133
  707H2O    HW2 2121   1.034   0.941   1.217 -0.3271  0.5031 -0.4903
  708H2O     OW 2122   2.602   1.457   2.230  0.0398 -1.0069  0.2891
  708H2O    HW1 2123   2.650   1.468   2.312  0.2288 -1.6037  0.2553
  708H2O    HW2 2124   2.647   1.517   2.169  0.8018 -1.6370  0.2313
  709H2O     OW 2125   1.054   1.729   1.783 -0.1678  0.1022  0.4548
  709H2O    HW1 2126   1.056   1.790   1.710 -0.0818 -0.3201  0.1063
  709H2O    HW2 2127   1.138   1.742   1.827 -0.7752  1.3048  1.2538
  710H2O     OW 2128   2.877   0.812   1.180 -0.1924  0.2871 -0.4485
  710H2O    HW1 2129   2.818   0.885   1.197  0.2563  0.5403  0.0098
  710H2O    HW2 2130   2.826   0.753   1.125 -1.5214 -0.3784  1.4912
  711H2O     OW 2131   1.860   2.023   0.380  0.2576 -0.2220  0.0901
  711H2O    HW1 2132   1.819   2.101   0.341 -0.5971 -0.1444  1.1445
  711H2O    HW2 2133   1.952   2.048   0.392 -0.0863  0.7378  0.7260
  712H2O     OW 2134   2.147   1.863   2.211  0.1485  0.4186  0.3385
  712H2O    HW1 2135   2.080   1.834   2.273  1.7518 -1.3824  1.2247
  712H2O    HW2 2136   2.186   1.782   2.177  1.9854  1.4540 -0.0472
  713H2O     OW 2137   1.022   2.017   0.231  0.1639 -0.0839  0.2127
  713H2O    HW1 2138   1.030   1.969   0.149 -0.5555  1.1546 -0.5772
  713H2O    HW2 2139   1.054   1.956   0.298  0.3939 -1.2164 -0.9381
  714H2O     OW 2140   1.275   1.277   1.323  0.3149 -0.7307  0.0088
  714H2O    HW1 2141   1.339   1.316   1.264 -0.6552  0.5438 -0.2072
  714H2O    HW2 2142   1.206   1.244   1.266 -1.1738  1.5253  0.4853
  715H2O     OW 2143   0.359   1.233   1.233 -0.3653 -0.3330  0.3029
  715H2O    HW1 2144   0.366   1.275   1.319  3.7962  0.6540 -0.5562
  715H2O    HW2 2145   0.333   1.303   1.174  0.3186 -0.2971  0.0524
  716H2O     OW 2146   1.638   0.148   1.411 -0.4720 -0.2057 -0.1711
  716H2O    HW1 2147   1.665   0.081   1.473  0.6028  0.5829  0.2209
  716H2O    HW2 2148   1.607   0.099   1.335  0.0623 -1.1499  0.2192
  717H2O     OW 2149   2.005   0.359   0.657  0.3903 -0.1441  0.6409
  717H2O    HW1 2150   2.008   0.325   0.747  0.3185  0.6669  0.9427
  717H2O    HW2 2151   1.974   0.284   0.605 -0.3141 -0.3860  1.4037
  718H2O     OW 2152   0.168   1.744   2.156  0.3574  0.4705  0.0582
  718H2O    HW1 2153   0.246   1.750   2.212  1.3411  0.8363 -1.3369
  718H2O    HW2 2154   0.138   1.654   2.166  1.1255  0.2484  0.3742
  719H2O     OW 2155   2.905   1.506   1.855 -0.3277  0.4845  0.7507
  719H2O    HW1 2156   2.847   1.509   1.931  0.3142 -0.6804  1.2919
  719H2O    HW2 2157   2.893   1.419   1.818  0.4081  0.5526  0.3448
  720H2O     OW 2158   2.085   0.732   1.959  0.1489 -0.4500 -0.0271
  720H2O    HW1 2159   2.000   0.726   2.003  0.6237 -0.6131  0.8700
  720H2O    HW2 2160   2.116   0.642   1.954 -1.4456 -0.7932 -3.7253
  721H2O     OW 2161   0.763   1.869   1.643 -0.3751  0.0550  0.8802
  721H2O    HW1 2162   0.853   1.900   1.637  0.2425 -1.5692  1.8000
  721H2O    HW2 2163   0.744   1.868   1.736 -0.9049 -0.8619  0.7592
  722H2O     OW 2164   1.281   2.493   0.024 -0.1644  0.0599 -0.4980
  722H2O    HW1 2165   1.375   2.506   0.008 -0.0977 -0.6874 -0.7558
  722H2O    HW2 2166   1.277   2.453   0.111 -0.0485 -2.6341 -1.7258
  723H2O     OW 2167   1.085   0.805   2.582 -0.0724  0.0541 -0.4060
  723H2O    HW1 2168   1.123   0.796   2.669  0.3000  1.5342 -0.4199
  723H2O    HW2 2169   1.054   0.895   2.578  1.1814  0.4103 -2.3014
  724H2O     OW 2170   0.661   1.239   0.227 -0.6011 -0.1180 -0.6760
  724H2O    HW1 2171   0.636   1.203   0.312  0.1556  0.4924 -0.1952
  724H2O    HW2 2172   0.726   1.178   0.193 -1.4342 -0.7519 -1.1406
  725H2O     OW 2173   2.662   0.827  -0.033 -0.2248  0.7101 -0.1660
  725H2O    HW1 2174   2.592   0.846   0.030  0.3783  1.5378  0.2503
  725H2O    HW2 2175   2.742   0.847   0.014  0.2494  0.8655 -1.0410
  726H2O     OW 2176   2.608   1.789   2.259  0.5144  0.0350  0.3141
  726H2O    HW1 2177   2.533   1.843   2.281  0.9719  0.6926  0.2821
  726H2O    HW2 2178   2.682   1.834   2.300  0.5670 -1.8552  2.2473
  727H2O     OW 2179   2.971   0.930   2.928 -0.1307  0.3054 -0.1757
  727H2O    HW1 2180   2.904   0.914   2.995 -0.8002 -2.0126 -1.3589
  727H2O    HW2 2181   3.054   0.922   2.974 -0.6220  0.0828  0.6730
  728H2O     OW 2182   2.069   0.148   0.298 -0.5670 -0.2477 -0.0172
  728H2O    HW1 2183   2.015   0.102   0.234  0.3819  0.6684 -1.4880
  728H2O    HW2 2184   2.009   0.171   0.369 -2.2275  1.4332 -1.9955
  729H2O     OW 2185   0.177   1.635   2.965 -0.0820 -0.1579 -0.0536
  729H2O    HW1 2186   0.153   1.713   2.913 -0.4367 -0.3607 -0.1951
  729H2O    HW2 2187   0.270   1.646   2.982  0.0548 -0.1251 -0.8017
  730H2O     OW 2188   2.950   0.523   2.929 -0.3596 -0.0610 -0.1997
  730H2O    HW1 2189   2.984   0.468   2.858  0.7612  0.8499 -0.3596
  730H2O    HW2 2190   3.022   0.527   2.993 -1.3125 -0.7806  0.9334
  731H2O     OW 2191   0.703   0.040   1.342  0.0127 -0.3056 -0.6283
  731H2O    HW1 2192   0.631  -0.023   1.337 -0.4731  0.1797  0.2578
  731H2O    HW2 2193   0.721   0.063   1.251 -2.2948  1.0822 -0.7450
  732H2O     OW 2194   0.113   0.375   0.375  0.1802  0.4005 -0.6123
  732H2O    HW1 2195   0.040   0.413   0.424 -0.3363  0.6740 -1.5893
  732H2O    HW2 2196   0.091   0.283   0.366 -0.4501  0.6374 -1.6078
  733H2O     OW 2197   2.827   1.083   2.320 -0.3253 -0.4128  0.3599
  733H2O    HW1 2198   2.742   1.108   2.284  1.0938 -0.3489 -2.9186
  733H2O    HW2 2199   2.823   1.111   2.412 -2.1567  3.6221 -0.9600
  734H2O     OW 2200   1.505   0.742   1.946  0.7615 -0.3568 -0.0864
  734H2O    HW1 2201   1.430   0.778   1.993 -0.4078 -0.9916 -1.4645
  734H2O    HW2 2202   1.559   0.818   1.924  0.0528  0.1954  0.0876
  735H2O     OW 2203   2.152   1.912   0.572 -0.3455 -0.3553  0.2463
  735H2O    HW1 2204   2.246   1.913   0.559 -0.2655  2.1835  0.9321
  735H2O    HW2 2205   2.120   1.986   0.521 -1.9227 -0.9758  0.3206
  736H2O     OW 2206   0.524   2.585   3.021 -0.0797  0.4814 -0.9834
  736H2O    HW1 2207   0.511   2.546   2.935  1.6892  1.8620 -1.8538
  736H2O    HW2 2208   0.480   2.670   3.017  0.1448  0.6204 -0.5716
  737H2O     OW 2209   0.403   2.663   2.394  0.1793  0.1645  0.3099
  737H2O    HW1 2210   0.368   2.717   2.324  1.3481 -0.4884 -0.7957
  737H2O    HW2 2211   0.367   2.576   2.377  2.2676 -0.4899 -0.7947
  738H2O     OW 2212   0.985   0.986   0.655 -0.3506 -0.5318  0.7576
  738H2O    HW1 2213   1.035   1.035   0.590 -0.3495 -0.6305  0.6835
  738H2O    HW2 2214   0.894   1.008   0.638 -0.3487 -0.5393  0.7386
  739H2O     OW 2215   0.460   0.843   2.251  0.5835 -0.7575  0.2578
  739H2O    HW1 2216   0.473   0.847   2.157  0.1051  2.1391  0.3181
  739H2O    HW2 2217   0.478   0.752   2.274  2.2120 -1.0995 -2.4004
  740H2O     OW 2218   2.518   1.907   0.785  0.7173 -0.1855 -0.7486
  740H2O    HW1 2219   2.479   1.922   0.871 -0.9975  0.2571 -1.5967
  740H2O    HW2 2220   2.611   1.925   0.797  0.3501  0.6551  0.8215
  741H2O     OW 2221   2.149   0.507   0.017 -0.0644 -0.3528  0.2134
  741H2O    HW1 2222   2.209   0.574  -0.015 -0.1818 -0.0507  0.6172
  741H2O    HW2 2223   2.192   0.471   0.095 -0.0967 -0.5962  0.1168
  742H2O     OW 2224   0.357   1.271   1.535 -0.0477  0.0652  0.0906
  742H2O    HW1 2225   0.309   1.353   1.540  1.7801  1.0563  1.3479
  742H2O    HW2 2226   0.326   1.220   1.610  0.2079  0.3625  0.3993
  743H2O     OW 2227   0.212   0.677   2.674 -0.0874 -0.0954  0.1462
  743H2O    HW1 2228   0.226   0.686   2.768 -0.2123  0.6182  0.0905
  743H2O    HW2 2229   0.230   0.584   2.656 -1.6263 -0.5734  1.1284
  744H2O     OW 2230   2.911   2.478   1.995  0.0533  0.4816 -0.3270
  744H2O    HW1 2231   2.944   2.476   1.906 -2.0552 -0.0427 -1.0935
  744H2O    HW2 2232   2.895   2.571   2.013 -0.8368  0.4559 -0.9821
  745H2O     OW 2233   2.388   2.933   1.804  0.2575  0.1932 -0.1638
  745H2O    HW1 2234   2.354   2.943   1.715  1.5384  0.0886 -0.6568
  745H2O    HW2 2235   2.384   3.021   1.841 -0.7178  0.1499 -0.1726
  746H2O     OW 2236   0.743   0.884   0.944  0.5321 -0.0332 -0.1467
  746H2O    HW1 2237   0.808   0.814   0.945 -1.4473 -1.8711  0.5072
  746H2O    HW2 2238   0.711   0.888   1.034 -0.8580  0.3212 -0.6537
  747H2O     OW 2239   1.830   2.781   2.600  0.1102 -0.2365 -0.3639
  747H2O    HW1 2240   1.812   2.834   2.523 -1.0528 -0.0728  0.0227
  747H2O    HW2 2241   1.848   2.693   2.565 -0.0568 -0.0786 -0.8470
  748H2O     OW 2242   2.356   0.515   2.054 -0.2415 -0.4951  0.3118
  748H2O    HW1 2243   2.305   0.513   1.973 -0.3801  0.3577  0.3771
  748H2O    HW2 2244   2.291   0.509   2.124 -0.2565  0.6288  0.3955
  749H2O     OW 2245   2.005   2.431   0.717  0.3136  0.6289 -0.1669
  749H2O    HW1 2246   1.982   2.505   0.773  0.7099  1.2922 -0.8675
  749H2O    HW2 2247   2.098   2.416   0.735  0.5489  1.1315 -0.9833
  750H2O     OW 2248   2.024   1.353   2.300  0.4067  0.1153  0.0448
  750H2O    HW1 2249   2.044   1.349   2.394  0.1995 -0.7079  0.0557
  750H2O    HW2 2250   2.108   1.343   2.257  0.5479  0.8848  0.1585
  751H2O     OW 2251   0.651   2.794   1.672 -0.1437 -0.5074 -0.0205
  751H2O    HW1 2252   0.584   2.860   1.652  0.2961 -0.4433 -1.2894
  751H2O    HW2 2253   0.716   2.805   1.603  0.9604 -0.8632  0.9757
  752H2O     OW 2254   1.405   1.991   2.666  0.2099  0.6882  0.5529
  752H2O    HW1 2255   1.404   2.065   2.606  0.1653  1.2972  1.3113
  752H2O    HW2 2256   1.388   2.029   2.752 -0.4804 -0.2871  0.8447
  753H2O     OW 2257   2.181   2.875   2.453 -0.6994 -0.0701  0.2300
  753H2O    HW1 2258   2.155   2.940   2.518 -0.3356 -0.2124  0.5123
  753H2O    HW2 2259   2.126   2.799   2.471 -0.3495 -0.2359  0.5902
  754H2O     OW 2260   1.392   0.634   0.237 -0.4678 -0.1506 -0.6209
  754H2O    HW1 2261   1.425   0.715   0.276 -1.2733 -0.1898  0.1309
  754H2O    HW2 2262   1.469   0.577   0.231  0.0162  0.5136 -0.7657
  755H2O     OW 2263   0.454   1.019   2.853  0.4015  0.3743  0.4926
  755H2O    HW1 2264   0.536   1.067   2.864  0.3949  0.0909  1.7524
  755H2O    HW2 2265   0.386   1.086   2.856  0.4603  0.4003  1.2695
  756H2O     OW 2266   2.383   1.178   2.946 -0.4570  0.3110 -0.0187
  756H2O    HW1 2267   2.416   1.150   3.031 -0.3956  1.0463  0.1970
  756H2O    HW2 2268   2.459   1.214   2.901 -1.0647  2.4137  0.6491
  757H2O     OW 2269   2.966   0.798   1.725 -0.3788  0.4302 -0.0810
  757H2O    HW1 2270   3.060   0.814   1.716 -0.3433 -0.0426 -0.5230
  757H2O    HW2 2271   2.960   0.711   1.765 -0.6203  0.6361  0.3335
  758H2O     OW 2272   0.938   1.622   2.681 -0.3021 -0.1757 -0.0011
  758H2O    HW1 2273   1.027   1.589   2.694  0.0611  0.2328 -1.4134
  758H2O    HW2 2274   0.900   1.565   2.614 -0.7824  0.2449 -0.0877
  759H2O     OW 2275   2.611   0.154   0.938  0.2104  0.2511  0.1559
  759H2O    HW1 2276   2.683   0.130   0.880  0.4795 -0.1835  0.6563
  759H2O    HW2 2277   2.579   0.238   0.905 -1.0847 -1.0719 -1.9529
  760H2O     OW 2278   1.500   1.798   0.351 -0.5923  0.7484 -0.1202
  760H2O    HW1 2279   1.492   1.729   0.417 -1.3371  0.8653 -0.0796
  760H2O    HW2 2280   1.588   1.833   0.362 -0.6982  0.7234  0.7693
  761H2O     OW 2281   1.884   2.137   0.716  0.4397 -0.0069  0.2697
  761H2O    HW1 2282   1.971   2.109   0.745  0.2739  0.2909  1.0604
  761H2O    HW2 2283   1.902   2.208   0.654  0.7990 -0.6558 -0.3646
  762H2O     OW 2284   2.642   0.480   0.624  0.1555  0.0062  0.1346
  762H2O    HW1 2285   2.729   0.519   0.617  0.0008  0.7501  2.3200
  762H2O    HW2 2286   2.613   0.502   0.712 -1.0945 -2.6667  0.3874
  763H2O     OW 2287   2.980   2.935   2.168  0.0113 -0.1175  0.0856
  763H2O    HW1 2288   3.019   2.964   2.251  1.7810 -0.5344 -0.6051
  763H2O    HW2 2289   3.003   3.004   2.106 -1.8800  0.5198  0.0917
  764H2O     OW 2290   2.668   0.312   0.156 -0.0820 -0.0140 -0.6088
  764H2O    HW1 2291   2.586   0.267   0.136 -0.3234  1.5792 -3.1606
  764H2O    HW2 2292   2.669   0.389   0.099  3.4143 -0.2872 -0.9637
  765H2O     OW 2293   2.038   2.589   2.480  1.2237 -0.4442  0.0421
  765H2O    HW1 2294   1.964   2.558   2.427  2.4113 -0.9045 -1.3247
  765H2O    HW2 2295   2.039   2.530   2.555 -0.2028 -0.0370  0.3940
  766H2O     OW 2296   0.146   0.867   1.471  0.5409  0.0779 -0.2308
  766H2O    HW1 2297   0.207   0.882   1.398  0.2183  1.9329 -0.1180
  766H2O    HW2 2298   0.123   0.955   1.501 -0.7087 -0.6670  0.9661
  767H2O     OW 2299   2.680   1.647   1.056 -0.2994  0.0090  0.2041
  767H2O    HW1 2300   2.599   1.624   1.011 -0.0881  1.7188 -1.0262
  767H2O    HW2 2301   2.654   1.663   1.147 -0.9073 -2.2044  0.4169
  768H2O     OW 2302   2.403   2.162   0.377  0.6511 -0.1811 -0.2666
  768H2O    HW1 2303   2.325   2.209   0.348  1.5348  0.2783 -1.8724
  768H2O    HW2 2304   2.426   2.105   0.304  1.8763 -0.2629  0.1721
  769H2O     OW 2305   1.982   0.912   0.886 -0.4405  0.0656  0.5944
  769H2O    HW1 2306   1.962   0.849   0.817 -1.7773  0.0109  1.0393
  769H2O    HW2 2307   1.922   0.890   0.957 -0.0658  1.0567  1.2138
  770H2O     OW 2308   2.728   1.748   2.540 -0.1691  0.2812 -0.4100
  770H2O    HW1 2309   2.791   1.696   2.591 -1.8593 -0.6610  0.7037
  770H2O    HW2 2310   2.659   1.686   2.517 -1.2856  1.6110 -0.6416
  771H2O     OW 2311   0.490   1.225   0.812 -0.3017 -0.6471 -0.2506
  771H2O    HW1 2312   0.407   1.269   0.831  1.0645  1.2866  1.2010
  771H2O    HW2 2313   0.529   1.210   0.899  1.2846 -0.7505 -0.9872
  772H2O     OW 2314   0.668   1.881   0.013  0.2868  0.0155  0.0691
  772H2O    HW1 2315   0.684   1.964  -0.033  2.9232 -0.8770 -0.6336
  772H2O    HW2 2316   0.711   1.892   0.098 -0.3244 -0.2032  0.4030
  773H2O     OW 2317   2.029   2.199   1.615 -0.2186 -0.2350  0.2436
  773H2O    HW1 2318   2.006   2.241   1.532  0.5412  0.3858  0.3479
  773H2O    HW2 2319   2.109   2.245   1.644 -0.3920 -0.5594  1.2303
  774H2O     OW 2320   0.233   1.815   1.508 -0.3747  0.2363  0.3362
  774H2O    HW1 2321   0.316   1.788   1.545  0.2663  2.3972  0.4284
  774H2O    HW2 2322   0.211   1.897   1.552 -2.7412 -0.5298  0.6143
  775H2O     OW 2323   1.476   0.440   2.984  0.0753 -0.1148 -0.2833
  775H2O    HW1 2324   1.538   0.482   2.925  1.4452 -2.2575 -0.3634
  775H2O    HW2 2325   1.519   0.441   3.070  0.2159 -1.6082 -0.3388
  776H2O     OW 2326   0.383   0.911   2.608  0.3267 -0.5907  0.0197
  776H2O    HW1 2327   0.351   0.822   2.623 -1.4245  0.0843  0.3876
  776H2O    HW2 2328   0.426   0.935   2.690  0.2844 -0.8990  0.1319
  777H2O     OW 2329   0.226   0.022   1.175  0.0915 -0.2846  0.0120
  777H2O    HW1 2330   0.305   0.076   1.172  1.4452 -2.2147  0.8659
  777H2O    HW2 2331   0.236  -0.040   1.103  0.5445 -2.1691  1.6818
  778H2O     OW 2332   2.905   1.917   2.655 -0.3434 -0.1075  0.5929
  778H2O    HW1 2333   2.914   1.859   2.731  0.3668 -0.1923  0.4387
  778H2O    HW2 2334   2.844   1.871   2.597 -2.0225  0.6214  1.7581
  779H2O     OW 2335   1.420   1.804   2.872  0.0269 -0.3251 -0.3413
  779H2O    HW1 2336   1.388   1.804   2.782  1.0506 -2.2413 -0.7154
  779H2O    HW2 2337   1.343   1.785   2.925 -0.6341  1.0773 -0.8051
  780H2O     OW 2338   0.355   2.658   1.039 -0.7666  0.5957  0.0930
  780H2O    HW1 2339   0.378   2.747   1.064  4.6137 -0.2036 -1.9423
  780H2O    HW2 2340   0.382   2.604   1.113 -1.2505  0.2957  0.0524
  781H2O     OW 2341   2.189   0.185   1.239 -0.2793  0.4327 -0.1558
  781H2O    HW1 2342   2.258   0.251   1.250  0.0240  0.0147  0.4400
  781H2O    HW2 2343   2.107   0.235   1.244 -0.0153  0.9397 -0.9481
  782H2O     OW 2344   2.412   0.530   2.723 -0.3288 -0.0740 -0.3426
  782H2O    HW1 2345   2.492   0.581   2.716 -0.5340  0.2829 -0.1147
  782H2O    HW2 2346   2.342   0.595   2.716 -0.6048 -0.4698 -1.2335
  783H2O     OW 2347   0.463   2.443   1.578  0.6640 -0.2098 -0.1522
  783H2O    HW1 2348   0.485   2.391   1.501  0.0610 -1.2430  0.3747
  783H2O    HW2 2349   0.545   2.485   1.604  0.9664 -0.2411 -1.0678
  784H2O     OW 2350   2.090   0.097   0.871 -0.4610 -0.4499 -0.1440
  784H2O    HW1 2351   2.166   0.081   0.927  0.0007 -0.1015 -0.6664
  784H2O    HW2 2352   2.068   0.189   0.884  0.0165 -0.2158 -0.9875
  785H2O     OW 2353   1.643   1.192   1.017  0.2110  0.3560 -0.2946
  785H2O    HW1 2354   1.602   1.114   0.981 -1.0007  0.1000  1.6742
  785H2O    HW2 2355   1.657   1.172   1.110  1.2806  1.8866 -0.1166
  786H2O     OW 2356   2.791   0.373   1.135 -0.4843  0.0565 -0.2748
  786H2O    HW1 2357   2.846   0.298   1.159  0.5332  1.7376  2.6646
  786H2O    HW2 2358   2.713   0.364   1.189 -1.1419  0.1437 -1.2101
  787H2O     OW 2359   1.174   1.314   0.703  0.0319 -0.6930  0.2200
  787H2O    HW1 2360   1.267   1.291   0.709  0.0428 -0.4211  1.0566
  787H2O    HW2 2361   1.128   1.241   0.744 -0.0301 -0.0173  1.3504
  788H2O     OW 2362   2.482   0.934   2.653  0.0692  0.1878 -0.0421
  788H2O    HW1 2363   2.543   0.861   2.663  2.1881  1.5993 -2.6667
  788H2O    HW2 2364   2.524   1.006   2.700  1.0890  1.5558 -3.0640
  789H2O     OW 2365   0.264   0.255   1.513  0.2057 -0.0538 -0.4347
  789H2O    HW1 2366   0.262   0.192   1.441  0.4078 -2.7511  1.8997
  789H2O    HW2 2367   0.206   0.326   1.485 -0.1252 -1.3476 -3.0256
  790H2O     OW 2368   0.807   2.741   0.058  0.3673 -0.0557 -0.6331
  790H2O    HW1 2369   0.762   2.666   0.096  0.1596 -0.6952 -2.1367
  790H2O    HW2 2370   0.894   2.708   0.035 -0.1138 -0.1395 -2.3415
  791H2O     OW 2371   0.075   2.522   0.983  1.2783 -0.3639 -0.4542
  791H2O    HW1 2372   0.111   2.483   0.904 -0.6069 -1.7241 -0.6507
  791H2O    HW2 2373   0.136   2.497   1.053  2.4179  0.0370 -1.3156
  792H2O     OW 2374   1.420   2.583   2.305  0.0050 -0.5287  0.1558
  792H2O    HW1 2375   1.326   2.570   2.315 -0.0861  0.0676  0.1060
  792H2O    HW2 2376   1.434   2.586   2.210  0.3296 -2.4092  0.1450
  793H2O     OW 2377   2.738   2.268   0.843 -1.0870 -0.2868 -0.0354
  793H2O    HW1 2378   2.682   2.310   0.908  1.3737  1.6396  0.8288
  793H2O    HW2 2379   2.805   2.223   0.895  0.7291  1.0348 -1.2225
  794H2O     OW 2380   1.040   0.351  -0.019 -0.1525 -0.5883 -0.1597
  794H2O    HW1 2381   1.091   0.432  -0.008 -0.9514  0.1326 -1.8224
  794H2O    HW2 2382   1.070   0.295   0.052  2.9526 -0.1377 -1.1122
  795H2O     OW 2383   2.187   0.040   2.967  0.6162  0.1051  0.1009
  795H2O    HW1 2384   2.152  -0.018   3.034 -0.0510  4.0507  3.1978
  795H2O    HW2 2385   2.120   0.041   2.898 -0.0784 -1.5796  0.7684
  796H2O     OW 2386   1.698   1.911   2.848  0.2662  0.0699 -0.4050
  796H2O    HW1 2387   1.682   1.961   2.929 -0.7515  1.4728 -1.4704
  796H2O    HW2 2388   1.611   1.899   2.810  0.5823 -1.9807 -0.4726
  797H2O     OW 2389   2.343   0.531   1.657 -0.5877 -0.4109  0.5127
  797H2O    HW1 2390   2.398   0.609   1.654 -1.0142 -0.1396 -0.1313
  797H2O    HW2 2391   2.404   0.458   1.650 -0.1584 -0.1385  1.4688
  798H2O     OW 2392   2.538   2.577   0.786  1.0415  0.5056  0.5997
  798H2O    HW1 2393   2.629   2.546   0.792  0.5264 -1.1598 -0.3841
  798H2O    HW2 2394   2.540   2.663   0.829  2.9264  0.1394  1.2684
  799H2O     OW 2395   1.090   1.262   2.050  0.1143  0.5293  0.2665
  799H2O    HW1 2396   1.009   1.306   2.024  0.1960  0.3652 -0.2631
  799H2O    HW2 2397   1.072   1.229   2.138 -0.7637 -0.4543 -0.2875
  800H2O     OW 2398   1.957   2.313   1.358  0.3062 -0.0428 -0.3618
  800H2O    HW1 2399   1.916   2.245   1.305  1.4947  0.1346 -1.5217
  800H2O    HW2 2400   1.893   2.384   1.360 -0.5219 -0.8049  0.0222
  801H2O     OW 2401   0.497   1.683   0.035 -0.6750 -0.5338  0.7520
  801H2O    HW1 2402   0.562   1.753   0.036  0.7841 -1.8952 -0.5355
  801H2O    HW2 2403   0.509   1.639   0.119 -1.0936  0.2801  1.2454
  802H2O     OW 2404   0.589   0.873   1.995 -0.3851 -0.0733 -0.2260
  802H2O    HW1 2405   0.670   0.833   2.026 -0.4136  1.5754  1.9186
  802H2O    HW2 2406   0.614   0.962   1.969 -1.2907  0.0657 -0.6259
  803H2O     OW 2407   1.370   1.455   0.408 -0.3136 -0.7227  0.6761
  803H2O    HW1 2408   1.438   1.521   0.392 -0.1591 -1.0591 -0.0690
  803H2O    HW2 2409   1.416   1.382   0.448 -0.4758 -0.3951  1.4544
  804H2O     OW 2410   0.035   0.791   2.494  0.2402  0.3290  0.0665
  804H2O    HW1 2411   0.102   0.842   2.449  0.6365 -0.2013  0.0502
  804H2O    HW2 2412   0.084   0.730   2.550 -0.2118 -0.3574 -0.2737
  805H2O     OW 2413   0.781   2.412   0.425 -0.3501 -0.1626  0.2888
  805H2O    HW1 2414   0.858   2.403   0.369  0.8495  0.6886  1.8148
  805H2O    HW2 2415   0.779   2.332   0.477 -0.7576 -0.3849 -0.0621
  806H2O     OW 2416   1.637   2.939   1.963 -0.3725 -0.0223  0.3974
  806H2O    HW1 2417   1.653   2.999   2.036  1.5325 -1.1889  0.9337
  806H2O    HW2 2418   1.658   2.853   1.999  1.0658 -0.5297 -1.7198
  807H2O     OW 2419   2.578   2.837   2.161  0.4977  0.4217  0.1496
  807H2O    HW1 2420   2.534   2.762   2.120  0.7817  0.4717 -0.2430
  807H2O    HW2 2421   2.513   2.873   2.221 -0.1330  0.7554 -0.7459
  808H2O     OW 2422   0.920   1.123   0.883 -0.4137 -0.3545  0.1389
  808H2O    HW1 2423   0.964   1.049   0.842 -2.0391 -0.6421 -1.0432
  808H2O    HW2 2424   0.850   1.085   0.935 -0.7951  0.2956  0.1044
  809H2O     OW 2425   1.249   2.161   0.721 -0.6171  0.6704  0.0987
  809H2O    HW1 2426   1.170   2.123   0.682  0.2080 -2.8130  1.7639
  809H2O    HW2 2427   1.223   2.187   0.809 -0.3140  0.9018  0.1227
  810H2O     OW 2428   1.699   1.402   2.876  0.1808  0.4808  0.2798
  810H2O    HW1 2429   1.662   1.451   2.949 -1.7681 -1.2365  0.4411
  810H2O    HW2 2430   1.690   1.459   2.800 -1.8377  0.4744  0.5223
  811H2O     OW 2431   0.304   0.717   0.213  0.2601  0.4832  0.0221
  811H2O    HW1 2432   0.321   0.653   0.282 -0.1823  1.6018  1.1730
  811H2O    HW2 2433   0.328   0.801   0.252  1.0293  1.0017 -1.5518
  812H2O     OW 2434   0.324   0.791   0.663 -0.2425 -0.0143 -0.2925
  812H2O    HW1 2435   0.303   0.807   0.755  0.0306 -0.4585 -0.1522
  812H2O    HW2 2436   0.243   0.757   0.626 -0.4714  0.5512 -0.3108
  813H2O     OW 2437   2.016   0.440   2.562  0.4076  0.0371 -0.0106
  813H2O    HW1 2438   1.978   0.388   2.633 -1.3144 -0.5827 -1.3934
  813H2O    HW2 2439   2.021   0.380   2.488 -1.4401  1.8009 -1.5647
  814H2O     OW 2440   1.573   1.642   1.004  0.4535  0.0480  0.4505
  814H2O    HW1 2441   1.645   1.674   1.059  1.1367 -0.2681 -0.2536
  814H2O    HW2 2442   1.569   1.705   0.932 -0.5093  0.5199  0.9142
  815H2O     OW 2443   2.037   0.057   1.684  0.5301 -0.2442  0.0151
  815H2O    HW1 2444   2.043   0.008   1.767  2.3467  0.3052  0.2227
  815H2O    HW2 2445   2.097   0.010   1.625 -0.0796 -0.1022 -0.7100
  816H2O     OW 2446   0.387   2.524   1.239  0.2889 -0.3253  0.0073
  816H2O    HW1 2447   0.460   2.489   1.290 -0.0741 -0.5079  0.3971
  816H2O    HW2 2448   0.309   2.488   1.280  0.0204 -0.8377 -0.9592
  817H2O     OW 2449   0.262   1.757   1.239  0.0396 -0.6369 -0.4104
  817H2O    HW1 2450   0.238   1.794   1.323  1.0360 -0.9883  0.0279
  817H2O    HW2 2451   0.295   1.831   1.188  1.8023 -0.8637  0.3801
  818H2O     OW 2452   0.119   0.144   1.997 -0.3183  0.0605 -0.3624
  818H2O    HW1 2453   0.171   0.148   1.917  0.1340 -0.2182 -0.0859
  818H2O    HW2 2454   0.083   0.232   2.008  1.3507  0.6603  0.2742
  819H2O     OW 2455   1.963   1.127   0.750 -0.0045 -0.4038  0.3183
  819H2O    HW1 2456   1.978   1.044   0.795  1.2057  1.0171  2.5535
  819H2O    HW2 2457   2.051   1.156   0.726 -0.5813 -0.6638 -2.0349
  820H2O     OW 2458   2.596   2.629   0.156  0.6906 -0.4453  0.4180
  820H2O    HW1 2459   2.670   2.669   0.201  0.9327 -1.7337  1.1477
  820H2O    HW2 2460   2.521   2.683   0.181  1.1275 -0.0650  0.9105
  821H2O     OW 2461   0.994   1.090   1.396  0.0614 -0.9491 -0.1402
  821H2O    HW1 2462   0.981   1.147   1.320 -1.6202 -3.1852 -1.5138
  821H2O    HW2 2463   0.959   1.141   1.470  0.6579  0.7480 -1.0255
  822H2O     OW 2464   1.852   1.339   0.857 -0.0227  0.5568  0.1644
  822H2O    HW1 2465   1.916   1.273   0.830  1.2305  1.5566  0.6686
  822H2O    HW2 2466   1.787   1.291   0.907 -0.2535 -0.6590 -1.3017
  823H2O     OW 2467   0.293   0.913   1.239 -0.6669  0.2055 -0.4695
  823H2O    HW1 2468   0.236   0.888   1.167 -1.7850  2.3931 -0.3319
  823H2O    HW2 2469   0.324   1.001   1.217 -0.1895  0.4755  1.2018
  824H2O     OW 2470   1.283   0.870   2.064  0.5226 -0.5880 -0.0739
  824H2O    HW1 2471   1.218   0.857   2.133 -1.2115  2.3926 -1.1498
  824H2O    HW2 2472   1.293   0.965   2.058  2.1377 -0.9229 -2.5240
  825H2O     OW 2473   2.554   1.071   2.283  0.1917 -0.7284  0.1794
  825H2O    HW1 2474   2.535   1.054   2.190 -0.4471  0.3510  0.1186
  825H2O    HW2 2475   2.535   0.988   2.326 -3.4867  0.0117 -0.0569
  826H2O     OW 2476   1.293   2.307   0.285  0.2723  0.5218 -0.7271
  826H2O    HW1 2477   1.387   2.310   0.304 -0.0589 -0.1868  1.0520
  826H2O    HW2 2478   1.274   2.213   0.273 -0.1236  0.6993 -1.5171
  827H2O     OW 2479   2.879   0.317   0.550 -0.5460  0.1474  0.0720
  827H2O    HW1 2480   2.938   0.359   0.613  2.5586  0.3951 -2.9812
  827H2O    HW2 2481   2.886   0.224   0.570  0.4078  0.2252  0.1118
  828H2O     OW 2482   0.527   0.637   2.596 -0.6971 -0.0221 -0.3604
  828H2O    HW1 2483   0.544   0.544   2.583 -1.2408 -0.3008  0.8679
  828H2O    HW2 2484   0.559   0.655   2.685 -3.3398  0.2821  0.5441
  829H2O     OW 2485   1.801   0.790   1.369  0.2068  0.1975  0.1907
  829H2O    HW1 2486   1.796   0.833   1.454 -0.9444 -0.1404  0.2909
  829H2O    HW2 2487   1.711   0.765   1.349  0.6662 -0.9408 -0.4961
  830H2O     OW 2488   0.456   0.235   2.379 -0.0945  0.2456 -0.3185
  830H2O    HW1 2489   0.464   0.248   2.285  0.5118 -1.5276 -0.5211
  830H2O    HW2 2490   0.536   0.272   2.416  0.9453 -1.5600 -0.7544
  831H2O     OW 2491   1.580   1.258   0.238 -0.0706  0.5693  0.3579
  831H2O    HW1 2492   1.549   1.346   0.257  1.0245  1.1487 -0.5393
  831H2O    HW2 2493   1.675   1.267   0.230 -0.2664 -0.1803 -2.6364
  832H2O     OW 2494   0.473   0.047   0.604 -0.0592  0.0901 -0.0895
  832H2O    HW1 2495   0.491   0.043   0.510  0.0887 -3.1383  0.0722
  832H2O    HW2 2496   0.550   0.090   0.641  1.3668 -1.6279 -1.0429
  833H2O     OW 2497   1.786   0.716   0.779 -0.2765  0.1531  0.3077
  833H2O    HW1 2498   1.693   0.719   0.755 -0.3377 -0.5827  0.4596
  833H2O    HW2 2499   1.797   0.632   0.823  0.1357  0.9264  1.6572
  834H2O     OW 2500   1.543   2.117   1.272 -0.3798 -0.0072  0.2888
  834H2O    HW1 2501   1.560   2.161   1.356 -0.8759  0.1954  0.2860
  834H2O    HW2 2502   1.570   2.027   1.287  0.8605  0.3569  0.2231
  835H2O     OW 2503   2.204   1.292   0.234 -0.0130 -0.9369 -0.4139
  835H2O    HW1 2504   2.136   1.350   0.200  0.0029  0.8943  2.7371
  835H2O    HW2 2505   2.161   1.207   0.246 -0.6376 -0.9390 -2.6561
  836H2O     OW 2506   0.050   2.807   1.324  0.3605 -0.8493 -0.2202
  836H2O    HW1 2507   0.002   2.889   1.319  1.2230 -0.3109  0.3284
  836H2O    HW2 2508   0.140   2.833   1.347  0.3229 -2.0387  1.2732
  837H2O     OW 2509   1.245   0.612   0.007 -0.0087 -1.4391 -0.1034
  837H2O    HW1 2510   1.297   0.546  -0.038 -1.1102 -2.0489 -0.4564
  837H2O    HW2 2511   1.294   0.629   0.088  1.0345 -1.6147 -0.6984
  838H2O     OW 2512   1.685   1.569   2.654  0.1099 -0.8718  0.6644
  838H2O    HW1 2513   1.744   1.550   2.581  0.1050 -0.8664  0.6590
  838H2O    HW2 2514   1.638   1.648   2.627  0.4567 -0.5937  0.8802
  839H2O     OW 2515   2.848   2.752   2.647 -0.3635  0.8343 -0.1693
  839H2O    HW1 2516   2.786   2.738   2.576 -2.6548 -0.2999  2.0933
  839H2O    HW2 2517   2.917   2.687   2.632 -2.1812 -1.1625  0.1765
  840H2O     OW 2518   0.671   0.802   0.267  0.0429 -0.0318 -0.5483
  840H2O    HW1 2519   0.699   0.799   0.359 -0.8398  0.9716 -0.2388
  840H2O    HW2 2520   0.694   0.891   0.239 -0.7349  0.0297 -0.9709
  841H2O     OW 2521   1.037   1.474   1.631  0.5675  0.1844 -0.1301
  841H2O    HW1 2522   1.045   1.503   1.541  2.9950  1.8190  0.6295
  841H2O    HW2 2523   1.034   1.554   1.683  0.6656 -0.7772  1.3822
  842H2O     OW 2524   2.351   1.471   2.978  0.1449  0.2810  0.2269
  842H2O    HW1 2525   2.294   1.395   2.988 -1.5291  1.6375  0.9079
  842H2O    HW2 2526   2.360   1.507   3.066  1.3176  0.6006 -0.0170
  843H2O     OW 2527   1.576   1.059   0.468 -0.2573  0.2076  0.7267
  843H2O    HW1 2528   1.600   1.142   0.426 -0.1456  0.5532  1.4645
  843H2O    HW2 2529   1.609   1.068   0.558 -0.7762 -0.3991  0.9747
  844H2O     OW 2530   1.568   1.630   0.609 -0.2106  0.4945 -0.1894
  844H2O    HW1 2531   1.652   1.584   0.614 -0.9177 -0.6629  1.0836
  844H2O    HW2 2532   1.568   1.688   0.686 -0.5101  0.6319 -0.2934
  845H2O     OW 2533   2.026   2.927   1.955  0.3465 -0.4299 -0.0774
  845H2O    HW1 2534   1.980   2.849   1.926  1.4234 -0.7103 -1.0148
  845H2O    HW2 2535   2.115   2.898   1.973  0.3692  0.2771  0.9750
  846H2O     OW 2536   1.109   2.141   1.588 -0.0769 -0.8858  0.6714
  846H2O    HW1 2537   1.151   2.162   1.504  0.2742 -0.8207  0.8635
  846H2O    HW2 2538   1.079   2.226   1.621 -0.6570 -0.9709  0.3791
  847H2O     OW 2539   2.065   1.924   1.167 -0.4645  0.2641  0.2064
  847H2O    HW1 2540   2.094   1.889   1.083  0.2582  1.4245 -0.0353
  847H2O    HW2 2541   2.111   1.871   1.232  2.2304  2.1274 -0.1742
  848H2O     OW 2542   0.646   2.916   2.392 -0.4739 -0.8177 -0.3038
  848H2O    HW1 2543   0.694   2.998   2.403  0.0777 -1.3674  1.3232
  848H2O    HW2 2544   0.653   2.872   2.477 -2.5708 -1.5767 -0.5360
  849H2O     OW 2545   0.523   1.121   0.442 -0.5085  0.0972 -0.4760
  849H2O    HW1 2546   0.570   1.054   0.492 -0.9668  1.1024  1.3101
  849H2O    HW2 2547   0.441   1.079   0.416 -0.2890 -0.4071 -0.3565
  850H2O     OW 2548   2.600   1.974   2.652 -0.2281 -0.3323  0.5296
  850H2O    HW1 2549   2.640   2.002   2.735 -0.7314 -0.5408  0.8456
  850H2O    HW2 2550   2.647   1.894   2.629 -1.4117 -1.3574  1.6355
  851H2O     OW 2551   2.396   2.973   2.282  0.2603 -0.9070  0.2007
  851H2O    HW1 2552   2.400   3.067   2.298 -1.7962 -0.2763 -2.9572
  851H2O    HW2 2553   2.315   2.944   2.325  0.1778 -0.9848 -0.0044
  852H2O     OW 2554   2.593   1.347   2.764 -0.0243 -0.0191 -0.8447
  852H2O    HW1 2555   2.570   1.440   2.759  1.2172  0.3739  1.0045
  852H2O    HW2 2556   2.523   1.302   2.716 -1.4618  1.7193 -0.3354
  853H2O     OW 2557   2.108   1.404   1.627 -0.1816 -0.2870 -0.5261
  853H2O    HW1 2558   2.089   1.495   1.646  1.0642 -0.1749  0.1737
  853H2O    HW2 2559   2.051   1.354   1.685 -0.1602  0.0475 -0.2224
  854H2O     OW 2560   0.481   1.437   2.830 -0.2489 -0.5621  0.2515
  854H2O    HW1 2561   0.540   1.426   2.756  2.1876 -2.5304  2.4536
  854H2O    HW2 2562   0.505   1.522   2.868  0.1065 -0.6287  0.1763
  855H2O     OW 2563   0.112   2.305   2.568 -0.2000 -0.2043  0.3311
  855H2O    HW1 2564   0.192   2.313   2.621  0.3743 -0.5286 -0.4735
  855H2O    HW2 2565   0.050   2.259   2.624  0.3897 -0.4795  0.7549
  856H2O     OW 2566   1.867   2.950   2.387 -0.5940  0.5381 -0.5471
  856H2O    HW1 2567   1.906   3.012   2.326  0.6997 -0.3819 -0.6504
  856H2O    HW2 2568   1.818   2.890   2.330  1.1437 -0.7062 -0.7345
  857H2O     OW 2569   2.360   0.033   0.913  0.0456  0.1338 -0.5339
  857H2O    HW1 2570   2.333  -0.055   0.939 -0.4489  0.5671  0.4122
  857H2O    HW2 2571   2.456   0.030   0.913  0.0171 -0.6712 -1.4046
  858H2O     OW 2572   0.079   2.548   2.696 -0.1446  0.3688  0.1070
  858H2O    HW1 2573   0.075   2.474   2.636  2.4285 -2.5031  3.4148
  858H2O    HW2 2574  -0.001   2.541   2.748 -0.8842  1.0617 -0.9518
  859H2O     OW 2575   1.831   2.550   2.113  0.3655 -0.1451 -0.6943
  859H2O    HW1 2576   1.875   2.485   2.167  0.1296  1.4489  1.4110
  859H2O    HW2 2577   1.895   2.621   2.105  0.1300 -0.0778 -1.9023
  860H2O     OW 2578   0.684   0.142   0.799 -0.3572  0.2637  0.2690
  860H2O    HW1 2579   0.659   0.234   0.801  1.2915  0.6995  0.7133
  860H2O    HW2 2580   0.767   0.140   0.750 -1.3140 -1.1802 -1.2970
  861H2O     OW 2581   0.585   2.085   1.881  0.6044  0.0630 -0.3438
  861H2O    HW1 2582   0.624   2.165   1.845 -1.3486  1.0364 -0.3033
  861H2O    HW2 2583   0.639   2.065   1.957 -0.1687  2.5063  0.8497
  862H2O     OW 2584   1.797   0.116   2.930 -0.5597 -0.1800 -0.2039
  862H2O    HW1 2585   1.791   0.020   2.931 -1.9126 -0.0968 -0.6825
  862H2O    HW2 2586   1.852   0.135   2.854 -1.9077 -0.4824 -1.2502
  863H2O     OW 2587   2.424   1.563   1.024 -0.2631  0.3246 -0.0692
  863H2O    HW1 2588   2.367   1.624   1.071  0.0313 -2.3227  3.7306
  863H2O    HW2 2589   2.365   1.518   0.963 -1.3619  0.9246  0.5435
  864H2O     OW 2590   1.487   2.948   0.784 -0.5034 -0.3901  0.4981
  864H2O    HW1 2591   1.513   2.882   0.848 -0.7782 -0.4937  0.5021
  864H2O    HW2 2592   1.415   2.995   0.825  0.3500  0.5802  0.9113
  865H2O     OW 2593   2.965   1.101   1.840 -0.7150  0.0551 -0.2407
  865H2O    HW1 2594   2.961   1.131   1.931  0.5112 -3.2656  0.9122
  865H2O    HW2 2595   2.914   1.020   1.839  1.2575 -1.1675 -2.0078
  866H2O     OW 2596   2.655   2.830   1.231 -0.1084  0.3083 -0.0204
  866H2O    HW1 2597   2.734   2.868   1.269 -0.9578  1.6982  0.3375
  866H2O    HW2 2598   2.583   2.868   1.282 -0.9965 -1.1166 -0.2021
  867H2O     OW 2599   1.899   0.134   0.523 -0.4887  0.1561  0.1460
  867H2O    HW1 2600   1.824   0.108   0.575  0.7398 -1.2799  1.1893
  867H2O    HW2 2601   1.971   0.079   0.554  1.5130  3.0478  0.6941
  868H2O     OW 2602   0.307   2.684   1.490 -0.1004 -0.1258  0.4884
  868H2O    HW1 2603   0.344   2.619   1.550  1.6198  0.3901 -0.0038
  868H2O    HW2 2604   0.287   2.635   1.410 -0.4413 -0.3956  0.7401
  869H2O     OW 2605   2.399   2.593   0.452 -1.0949 -0.5397 -0.1596
  869H2O    HW1 2606   2.462   2.651   0.409 -0.1680 -2.2030 -1.0492
  869H2O    HW2 2607   2.333   2.652   0.489  0.6864  1.1585  0.2830
  870H2O     OW 2608   2.325   2.776   0.938 -0.2892  0.4521  0.3972
  870H2O    HW1 2609   2.398   2.806   0.882  0.0655  3.0988  2.2901
  870H2O    HW2 2610   2.368   2.731   1.010 -0.5807  0.7784  0.7731
  871H2O     OW 2611   2.429   1.932   0.539  0.0081  0.5129 -0.2342
  871H2O    HW1 2612   2.458   1.923   0.630  0.4455 -0.4691 -0.4746
  871H2O    HW2 2613   2.449   2.023   0.516 -1.4031  1.1474  1.1125
  872H2O     OW 2614   0.911   2.651   0.364 -0.0842  0.3034  0.1983
  872H2O    HW1 2615   0.844   2.586   0.385 -0.9853  1.0534 -0.3731
  872H2O    HW2 2616   0.869   2.736   0.381  1.0004  0.7424  0.6871
  873H2O     OW 2617   0.775   0.155   2.406 -0.6127  0.2896 -0.1180
  873H2O    HW1 2618   0.808   0.193   2.324 -0.8605  0.4170 -0.1597
  873H2O    HW2 2619   0.850   0.155   2.465 -0.9191  1.9250  0.2652
  874H2O     OW 2620   2.741   1.914   0.137  0.6886 -0.4097  0.3666
  874H2O    HW1 2621   2.661   1.940   0.184 -0.1452 -0.3870 -1.0732
  874H2O    HW2 2622   2.800   1.884   0.206  0.0297  1.1109  1.6007
  875H2O     OW 2623   2.763   2.114   2.106  0.3434  0.3483 -0.2653
  875H2O    HW1 2624   2.818   2.191   2.122  1.5048  0.0338 -2.7558
  875H2O    HW2 2625   2.799   2.047   2.165 -1.3324  2.0418  2.6441
  876H2O     OW 2626   2.201   2.502   2.820  0.1910 -0.4007  0.2178
  876H2O    HW1 2627   2.252   2.568   2.774 -0.0987 -0.6148 -0.4146
  876H2O    HW2 2628   2.115   2.503   2.776  0.8856 -2.7072 -1.2015
  877H2O     OW 2629   1.549   0.302   0.775 -0.3660  0.5361  0.0926
  877H2O    HW1 2630   1.509   0.268   0.855 -0.2938  0.6579  0.1799
  877H2O    HW2 2631   1.477   0.344   0.729 -0.1896  1.3510  0.5744
  878H2O     OW 2632   2.688   1.011   1.184 -0.1362 -0.2823  0.0577
  878H2O    HW1 2633   2.600   1.045   1.200 -0.1438 -0.6149  0.7165
  878H2O    HW2 2634   2.745   1.064   1.239  0.1286  0.2049 -0.6784
  879H2O     OW 2635   2.705   0.879   0.370 -0.1578 -0.4404 -0.2800
  879H2O    HW1 2636   2.719   0.944   0.438 -1.6786 -1.0927  0.6626
  879H2O    HW2 2637   2.634   0.825   0.403  1.0875 -2.5751 -1.0539
  880H2O     OW 2638   0.415   0.190   3.024  0.1239 -0.0711 -0.1047
  880H2O    HW1 2639   0.329   0.164   2.990 -0.7067  1.3498  0.8766
  880H2O    HW2 2640   0.417   0.285   3.013  0.0835  0.3232  3.2234
  881H2O     OW 2641   1.873   0.275   1.579  0.2888 -0.0375  0.2214
  881H2O    HW1 2642   1.938   0.207   1.594 -1.3024 -1.5202  0.3610
  881H2O    HW2 2643   1.810   0.236   1.519  0.3578  1.9332 -1.1450
  882H2O     OW 2644   1.902   0.772   0.053  0.0322 -0.3445  0.3273
  882H2O    HW1 2645   1.906   0.774   0.149 -1.8591  0.6444  0.3878
  882H2O    HW2 2646   1.896   0.679   0.031 -1.6229 -0.4536  1.2419
  883H2O     OW 2647   0.302   1.339   2.517 -0.2655  0.2338  0.3383
  883H2O    HW1 2648   0.250   1.275   2.467  0.4861  0.3144 -0.5512
  883H2O    HW2 2649   0.390   1.334   2.478 -0.1255  1.5775  0.4768
  884H2O     OW 2650   0.495   2.872   1.391  0.4006  0.3376 -0.2325
  884H2O    HW1 2651   0.410   2.835   1.413  0.1088  1.5925  0.7354
  884H2O    HW2 2652   0.543   2.799   1.351 -0.2634 -1.0031  1.4217
  885H2O     OW 2653   2.087   2.872   0.132  0.0096  0.6433  0.4042
  885H2O    HW1 2654   2.131   2.817   0.067 -2.0054 -1.7895  1.1087
  885H2O    HW2 2655   2.005   2.826   0.150 -1.5556  3.7532  1.1648
  886H2O     OW 2656   1.280   1.718   1.947  0.1632  0.0297 -0.6148
  886H2O    HW1 2657   1.331   1.652   1.900  1.2945 -0.9677  2.0168
  886H2O    HW2 2658   1.233   1.668   2.014 -2.2849  1.2994 -1.3588
  887H2O     OW 2659   1.043   1.595   2.097 -0.6103 -0.0572 -0.3372
  887H2O    HW1 2660   1.025   1.510   2.056 -0.5270 -0.7653  1.0904
  887H2O    HW2 2661   0.957   1.627   2.124 -0.5835  0.0570 -0.3894
  888H2O     OW 2662   0.207   2.113   1.647 -0.4860 -0.0525  0.1567
  888H2O    HW1 2663   0.197   2.070   1.733 -0.9446 -0.1805  0.0423
  888H2O    HW2 2664   0.223   2.205   1.668  1.0478 -0.3727  0.4177
  889H2O     OW 2665   2.937   1.999  -0.029  0.1410 -0.4684  0.2341
  889H2O    HW1 2666   2.964   2.081   0.011  0.2619 -0.2619 -0.2743
  889H2O    HW2 2667   2.866   1.967   0.026 -1.0158  0.8005 -0.5339
  890H2O     OW 2668   1.857   1.624   0.338  0.0320 -0.0079  0.1477
  890H2O    HW1 2669   1.914   1.645   0.412 -0.7060 -0.8114  0.9449
  890H2O    HW2 2670   1.847   1.706   0.290  1.1448  0.3273  0.5109
  891H2O     OW 2671   1.950   1.617   1.717  0.4165 -0.3162  0.5174
  891H2O    HW1 2672   1.939   1.620   1.812 -3.5046 -0.1832  0.0838
  891H2O    HW2 2673   1.954   1.708   1.690 -1.7618 -0.3173  0.1919
  892H2O     OW 2674   0.631   2.070   0.851  0.1988  0.3382 -0.0516
  892H2O    HW1 2675   0.559   2.101   0.906  0.5663 -0.2602  0.7720
  892H2O    HW2 2676   0.687   2.020   0.911  0.9078  0.1804 -0.8456
  893H2O     OW 2677   1.714   0.503   0.473  0.4317 -0.6250 -0.1084
  893H2O    HW1 2678   1.796   0.501   0.524  0.1851 -0.6436  0.2886
  893H2O    HW2 2679   1.646   0.515   0.539  0.0468 -1.4254 -0.3669
  894H2O     OW 2680   0.004   0.193   1.088  0.2079 -0.1622 -0.0458
  894H2O    HW1 2681   0.033   0.193   0.996  0.7318 -1.4035  0.1170
  894H2O    HW2 2682   0.069   0.139   1.133 -0.6684 -0.4490  0.8674
  895H2O     OW 2683   2.282   1.442   0.772 -0.1220 -0.5182  0.4980
  895H2O    HW1 2684   2.188   1.458   0.763 -0.1306 -0.0710  1.3014
  895H2O    HW2 2685   2.323   1.526   0.752  0.1667 -0.9906 -0.8911
  896H2O     OW 2686   0.216   0.071   2.251 -0.2169 -0.3159 -0.0589
  896H2O    HW1 2687   0.211   0.082   2.156  0.3862  0.9548  0.0607
  896H2O    HW2 2688   0.177   0.150   2.287 -0.4112 -0.7849  0.7541
  897H2O     OW 2689   1.122   2.161   2.820  0.2765  0.3253 -0.3918
  897H2O    HW1 2690   1.054   2.198   2.876  1.6881  1.3742  0.6309
  897H2O    HW2 2691   1.192   2.137   2.880  0.4150 -1.6583 -1.3451
  898H2O     OW 2692   1.497   0.577   0.622 -0.4940  0.3730  0.1072
  898H2O    HW1 2693   1.426   0.588   0.559 -0.5213  1.3074  0.3024
  898H2O    HW2 2694   1.453   0.548   0.702 -0.7538  1.8383  0.4950
  899H2O     OW 2695   0.487   2.476   0.278 -0.7066  0.0202  0.6184
  899H2O    HW1 2696   0.574   2.450   0.310  0.3577  1.4238 -1.1525
  899H2O    HW2 2697   0.488   2.452   0.185 -1.2296  2.5637 -0.0410
  900H2O     OW 2698   0.679   2.029   2.128  0.0979 -0.1830  0.1070
  900H2O    HW1 2699   0.754   1.984   2.167 -0.0684 -0.7165 -0.1929
  900H2O    HW2 2700   0.665   2.106   2.185 -0.6457 -1.3838  1.5595
   3.01125   3.01125   3.01125
